 *******************************************************************************
 **                                                                           **
 **                              MOPAC v23.0.3                                **
 **                                                                           **
 *******************************************************************************
 **          Digital Object Identifier (DOI): 10.5281/zenodo.6511958          **
 **    Visit the DOI location for information on how to cite this program.    **
 *******************************************************************************

                              PM7 CALCULATION RESULTS

 *******************************************************************************
 *  CALCULATION DONE:                                Fri Jul 25 15:24:40 2025  *
 *  PM7        - The PM7 Hamiltonian to be used
 *  XYZ        - CARTESIAN COORDINATE SYSTEM TO BE USED
 *  T=         - A TIME OF 172800.0 SECONDS REQUESTED
 *  DUMP=N     - RESTART FILE WRITTEN EVERY 7200.0 SECONDS REQUESTED
 *******************************************************************************
PM7 XYZ

 freesolv_434 - geometry optimisation
   ATOM   CHEMICAL          X               Y               Z
  NUMBER   SYMBOL      (ANGSTROMS)     (ANGSTROMS)     (ANGSTROMS)

     1       C          2.64305200  *  -0.04984100  *  -0.35728300  *
     2       C          1.31604100  *   0.60065200  *   0.02289300  *
     3       C          0.14523200  *  -0.37151400  *  -0.17640100  *
     4       C         -1.20000800  *   0.28169300  *   0.17895400  *
     5       C         -2.35718300  *  -0.66935900  *  -0.13817800  *
     6       O         -1.21954400  *   0.60607900  *   1.54520600  *
     7       H          3.47019300  *   0.67446100  *  -0.20166100  *
     8       H          2.82980800  *  -0.94362100  *   0.27545900  *
     9       H          2.63258200  *  -0.35237900  *  -1.42612900  *
    10       H          1.16531200  *   1.50373000  *  -0.60793800  *
    11       H          1.36678900  *   0.91903200  *   1.08670900  *
    12       H          0.29905200  *  -1.27226700  *   0.45859300  *
    13       H          0.12472800  *  -0.69550300  *  -1.24073100  *
    14       H         -1.32244000  *   1.20430500  *  -0.43606400  *
    15       H         -2.36075800  *  -0.92567400  *  -1.21914400  *
    16       H         -2.26649400  *  -1.60326000  *   0.45700700  *
    17       H         -3.32455000  *  -0.18232000  *   0.10787000  *
    18       H         -1.94181300  *   1.27578600  *   1.67083900  *



          CARTESIAN COORDINATES 

    NO.       ATOM           X           Y           Z

     1         C          2.6431     -0.0498     -0.3573
     2         C          1.3160      0.6007      0.0229
     3         C          0.1452     -0.3715     -0.1764
     4         C         -1.2000      0.2817      0.1790
     5         C         -2.3572     -0.6694     -0.1382
     6         O         -1.2195      0.6061      1.5452
     7         H          3.4702      0.6745     -0.2017
     8         H          2.8298     -0.9436      0.2755
     9         H          2.6326     -0.3524     -1.4261
    10         H          1.1653      1.5037     -0.6079
    11         H          1.3668      0.9190      1.0867
    12         H          0.2991     -1.2723      0.4586
    13         H          0.1247     -0.6955     -1.2407
    14         H         -1.3224      1.2043     -0.4361
    15         H         -2.3608     -0.9257     -1.2191
    16         H         -2.2665     -1.6033      0.4570
    17         H         -3.3245     -0.1823      0.1079
    18         H         -1.9418      1.2758      1.6708

 General Reference for PM7:
 "Optimization of Parameters for Semiempirical Methods VI: More Modifications to the 
 NDDO Approximations and Re-optimization of Parameters", J. J. P. Stewart, J. Mol. Mod., 1:32, 19 (2013)
 https://link.springer.com/article/10.1007/s00894-012-1667-x

           Empirical Formula: C5 H12 O  =    18 atoms



      MOLECULAR POINT GROUP   :   C1  


      RHF CALCULATION, NO. OF DOUBLY OCCUPIED LEVELS = 19


          Geometry optimization using EF

          DIAGONAL MATRIX USED AS START HESSIAN

 CYCLE:     1 TIME:   0.004 TIME LEFT:  2.00D  GRAD.:    43.199 HEAT: -72.35494
 CYCLE:     2 TIME:   0.012 TIME LEFT:  2.00D  GRAD.:    30.418 HEAT: -73.22477
 CYCLE:     3 TIME:   0.004 TIME LEFT:  2.00D  GRAD.:    18.463 HEAT: -73.81581
 CYCLE:     4 TIME:   0.004 TIME LEFT:  2.00D  GRAD.:    26.449 HEAT: -74.03373
 CYCLE:     5 TIME:   0.008 TIME LEFT:  2.00D  GRAD.:    29.372 HEAT: -74.06261
 CYCLE:     6 TIME:   0.004 TIME LEFT:  2.00D  GRAD.:    13.712 HEAT: -74.44004
 CYCLE:     7 TIME:   0.012 TIME LEFT:  2.00D  GRAD.:     6.345 HEAT: -74.56211
 CYCLE:     8 TIME:   0.004 TIME LEFT:  2.00D  GRAD.:    13.736 HEAT: -74.58515
 CYCLE:     9 TIME:   0.004 TIME LEFT:  2.00D  GRAD.:     4.910 HEAT: -74.70659
 CYCLE:    10 TIME:   0.008 TIME LEFT:  2.00D  GRAD.:     8.568 HEAT: -74.71751
 CYCLE:    11 TIME:   0.004 TIME LEFT:  2.00D  GRAD.:     4.765 HEAT: -74.76404
 CYCLE:    12 TIME:   0.008 TIME LEFT:  2.00D  GRAD.:     3.986 HEAT: -74.77453
 CYCLE:    13 TIME:   0.004 TIME LEFT:  2.00D  GRAD.:     2.195 HEAT: -74.78822
 CYCLE:    14 TIME:   0.008 TIME LEFT:  2.00D  GRAD.:     3.429 HEAT: -74.79982
 CYCLE:    15 TIME:   0.004 TIME LEFT:  2.00D  GRAD.:     2.761 HEAT: -74.82083
 CYCLE:    16 TIME:   0.004 TIME LEFT:  2.00D  GRAD.:     4.174 HEAT: -74.85411
 CYCLE:    17 TIME:   0.004 TIME LEFT:  2.00D  GRAD.:     7.205 HEAT: -74.88392
 CYCLE:    18 TIME:   0.004 TIME LEFT:  2.00D  GRAD.:     6.441 HEAT: -74.92610
 CYCLE:    19 TIME:   0.008 TIME LEFT:  2.00D  GRAD.:     8.439 HEAT: -74.93257
 CYCLE:    20 TIME:   0.000 TIME LEFT:  2.00D  GRAD.:     7.550 HEAT: -74.95001
 CYCLE:    21 TIME:   0.008 TIME LEFT:  2.00D  GRAD.:     6.335 HEAT: -74.96227
 CYCLE:    22 TIME:   0.004 TIME LEFT:  2.00D  GRAD.:     3.855 HEAT: -74.97458
 CYCLE:    23 TIME:   0.004 TIME LEFT:  2.00D  GRAD.:     4.491 HEAT: -74.97874
 CYCLE:    24 TIME:   0.004 TIME LEFT:  2.00D  GRAD.:     4.504 HEAT: -74.97975
 CYCLE:    25 TIME:   0.004 TIME LEFT:  2.00D  GRAD.:     3.046 HEAT: -74.98943
 CYCLE:    26 TIME:   0.020 TIME LEFT:  2.00D  GRAD.:     1.649 HEAT: -74.99261
 CYCLE:    27 TIME:   0.008 TIME LEFT:  2.00D  GRAD.:     2.719 HEAT: -74.99580
 CYCLE:    28 TIME:   0.012 TIME LEFT:  2.00D  GRAD.:     4.104 HEAT: -74.99643
 CYCLE:    29 TIME:   0.008 TIME LEFT:  2.00D  GRAD.:     2.865 HEAT: -75.00216
 CYCLE:    30 TIME:   0.008 TIME LEFT:  2.00D  GRAD.:     6.081 HEAT: -74.99273
 CYCLE:    31 TIME:   0.008 TIME LEFT:  2.00D  GRAD.:     2.356 HEAT: -75.00607
 CYCLE:    32 TIME:   0.008 TIME LEFT:  2.00D  GRAD.:     5.455 HEAT: -74.99840
 CYCLE:    33 TIME:   0.012 TIME LEFT:  2.00D  GRAD.:     3.860 HEAT: -75.00542
 CYCLE:    34 TIME:   0.008 TIME LEFT:  2.00D  GRAD.:     3.419 HEAT: -75.00712
 CYCLE:    35 TIME:   0.008 TIME LEFT:  2.00D  GRAD.:     0.689 HEAT: -75.01488

     GRADIENT =  0.68922 IS LESS THAN CUTOFF =  1.00000



 -------------------------------------------------------------------------------
 PM7 XYZ

 freesolv_434 - geometry optimisation


     GEOMETRY OPTIMISED USING EIGENVECTOR FOLLOWING (EF).     
     SCF FIELD WAS ACHIEVED                                   


                              PM7 CALCULATION
                                                       MOPAC v23.0.3 Linux
                                                       Fri Jul 25 15:24:40 2025




          FINAL HEAT OF FORMATION =        -75.01488 KCAL/MOL =    -313.86226 KJ/MOL


          COSMO AREA              =        144.70 SQUARE ANGSTROMS
          COSMO VOLUME            =        134.48 CUBIC ANGSTROMS

          GRADIENT NORM           =          0.68922          =       0.16245 PER ATOM
          IONIZATION POTENTIAL    =         10.472759 EV
          HOMO LUMO ENERGIES (EV) =        -10.473  3.031
          NO. OF FILLED LEVELS    =         19
          MOLECULAR WEIGHT        =         88.1492         POINT GROUP:  C1  

          MOLECULAR DIMENSIONS (Angstroms)

            Atom       Atom       Distance
            H    17    H     7     6.85972
            H    18    H    13     3.53889
            H    12    H    14     2.77991


          SCF CALCULATIONS        =         47

          WALL-CLOCK TIME         =      0.254 SECONDS
          COMPUTATION TIME        =      2.357 SECONDS




   ATOM   CHEMICAL          X               Y               Z
  NUMBER   SYMBOL      (ANGSTROMS)     (ANGSTROMS)     (ANGSTROMS)

     1       C          2.64200810  *  -0.03746078  *  -0.33898771  *
     2       C          1.30086440  *   0.60277386  *   0.01650564  *
     3       C          0.14480231  *  -0.38608752  *  -0.17578301  *
     4       C         -1.19895901  *   0.29578653  *   0.11746869  *
     5       C         -2.38284390  *  -0.64000167  *  -0.13219311  *
     6       O         -1.13282342  *   0.63980370  *   1.49460002  *
     7       H          3.46857903  *   0.66268456  *  -0.17405620  *
     8       H          2.83713855  *  -0.92477022  *   0.27372323  *
     9       H          2.67507132  *  -0.34605367  *  -1.38907710  *
    10       H          1.13815595  *   1.50785567  *  -0.59689410  *
    11       H          1.31065803  *   0.95187601  *   1.07004210  *
    12       H          0.27618459  *  -1.25017986  *   0.50452847  *
    13       H          0.14604107  *  -0.79135687  *  -1.20268106  *
    14       H         -1.30827379  *   1.24511862  *  -0.45361573  *
    15       H         -2.42765256  *  -0.96063583  *  -1.17828944  *
    16       H         -2.30770794  *  -1.54157079  *   0.48891285  *
    17       H         -3.33622097  *  -0.15708174  *   0.10597951  *
    18       H         -2.00263795  *   0.92228827  *   1.82621418  *

                             CARTESIAN COORDINATES

   1    C        2.642008104    -0.037460778    -0.338987710
   2    C        1.300864400     0.602773862     0.016505637
   3    C        0.144802312    -0.386087517    -0.175783013
   4    C       -1.198959015     0.295786532     0.117468694
   5    C       -2.382843898    -0.640001665    -0.132193112
   6    O       -1.132823419     0.639803704     1.494600020
   7    H        3.468579030     0.662684560    -0.174056197
   8    H        2.837138546    -0.924770223     0.273723226
   9    H        2.675071325    -0.346053666    -1.389077103
  10    H        1.138155950     1.507855672    -0.596894101
  11    H        1.310658026     0.951876006     1.070042098
  12    H        0.276184595    -1.250179863     0.504528472
  13    H        0.146041074    -0.791356873    -1.202681061
  14    H       -1.308273786     1.245118622    -0.453615727
  15    H       -2.427652564    -0.960635828    -1.178289444
  16    H       -2.307707942    -1.541570792     0.488912848
  17    H       -3.336220971    -0.157081741     0.105979512
  18    H       -2.002637948     0.922288266     1.826214180


           Empirical Formula: C5 H12 O  =    18 atoms



      MOLECULAR POINT GROUP   :   C1  


                  EIGENVALUES  
 -29.88135 -27.97528 -26.26313 -23.63705 -20.34329 -19.88978 -17.49939 -15.57075
 -15.39061 -15.08631 -13.75525 -13.73437 -13.15009 -12.89685 -12.35472 -11.88112
 -11.35834 -11.14940 -10.47276   3.03094   3.85598   4.11846   4.59301   4.84752
   5.42488   5.51959   5.61544   5.81797   5.96954   5.99738   6.22205   6.34728
   6.72049   6.78515   6.93799   7.14530


              NET ATOMIC CHARGES AND DIPOLE CONTRIBUTIONS

  ATOM NO.   TYPE          CHARGE      No. of ELECS.   s-Pop       p-Pop       
    1          C          -0.440589        4.4406     1.05203     3.38856
    2          C          -0.243360        4.2434     1.05422     3.18913
    3          C          -0.301579        4.3016     1.06533     3.23624
    4          C           0.178679        3.8213     1.08430     2.73702
    5          C          -0.511354        4.5114     1.06277     3.44858
    6          O          -0.569077        6.5691     1.84831     4.72077
    7          H           0.140841        0.8592     0.85916
    8          H           0.143176        0.8568     0.85682
    9          H           0.138879        0.8611     0.86112
   10          H           0.130301        0.8697     0.86970
   11          H           0.154212        0.8458     0.84579
   12          H           0.154550        0.8455     0.84545
   13          H           0.139183        0.8608     0.86082
   14          H           0.110796        0.8892     0.88920
   15          H           0.155109        0.8449     0.84489
   16          H           0.162327        0.8377     0.83767
   17          H           0.147319        0.8527     0.85268
   18          H           0.310585        0.6894     0.68941
 DIPOLE           X         Y         Z       TOTAL
 POINT-CHG.    -0.986    -0.206    -1.512     1.817
 HYBRID        -0.345    -0.058     0.277     0.446
 SUM           -1.331    -0.264    -1.236     1.835


          ATOMIC ORBITAL ELECTRON POPULATIONS

     Atom    s        px        py        pz   
    1  C   1.05203   1.07288   1.15219   1.16349
    2  C   1.05422   0.96830   1.05674   1.16410
    3  C   1.06533   0.99870   1.08774   1.14981
    4  C   1.08430   0.94803   1.00680   0.78220
    5  C   1.06277   1.11189   1.15545   1.18125
    6  O   1.84831   1.45489   1.90832   1.35756
    7  H   0.85916
    8  H   0.85682
    9  H   0.86112
   10  H   0.86970
   11  H   0.84579
   12  H   0.84545
   13  H   0.86082
   14  H   0.88920
   15  H   0.84489
   16  H   0.83767
   17  H   0.85268
   18  H   0.68941

 **********************
 *                    *
 * JOB ENDED NORMALLY *
 *                    *
 **********************



 TOTAL JOB TIME:             0.25 SECONDS

 == MOPAC DONE ==
