 *******************************************************************************
 **                                                                           **
 **                              MOPAC v23.0.3                                **
 **                                                                           **
 *******************************************************************************
 **          Digital Object Identifier (DOI): 10.5281/zenodo.6511958          **
 **    Visit the DOI location for information on how to cite this program.    **
 *******************************************************************************

                              PM7 CALCULATION RESULTS

 *******************************************************************************
 *  CALCULATION DONE:                                Fri Jul 25 15:25:02 2025  *
 *  PM7        - The PM7 Hamiltonian to be used
 *  XYZ        - CARTESIAN COORDINATE SYSTEM TO BE USED
 *  T=         - A TIME OF 172800.0 SECONDS REQUESTED
 *  DUMP=N     - RESTART FILE WRITTEN EVERY 7200.0 SECONDS REQUESTED
 *******************************************************************************
PM7 XYZ

 freesolv_65 - geometry optimisation
   ATOM   CHEMICAL          X               Y               Z
  NUMBER   SYMBOL      (ANGSTROMS)     (ANGSTROMS)     (ANGSTROMS)

     1       C         -1.24077100  *  -0.62533000  *  -0.07491700  *
     2       N          0.01465500  *  -0.00207300  *  -0.52051800  *
     3       C          0.08110300  *   1.38834300  *  -0.04571700  *
     4       C          1.16325300  *  -0.76352000  *  -0.00668000  *
     5       H         -2.11045800  *  -0.06885600  *  -0.48621600  *
     6       H         -1.31402300  *  -0.64201700  *   1.03581600  *
     7       H         -1.30686900  *  -1.66679900  *  -0.45722600  *
     8       H          0.05249800  *   1.43966800  *   1.06600200  *
     9       H         -0.76987400  *   1.97331900  *  -0.45660300  *
    10       H          1.01532100  *   1.87070200  *  -0.40593100  *
    11       H          1.13118200  *  -1.80694400  *  -0.38802600  *
    12       H          2.11278700  *  -0.31161800  *  -0.36634200  *
    13       H          1.17119700  *  -0.78487500  *   1.10635700  *



          CARTESIAN COORDINATES 

    NO.       ATOM           X           Y           Z

     1         C         -1.2408     -0.6253     -0.0749
     2         N          0.0147     -0.0021     -0.5205
     3         C          0.0811      1.3883     -0.0457
     4         C          1.1633     -0.7635     -0.0067
     5         H         -2.1105     -0.0689     -0.4862
     6         H         -1.3140     -0.6420      1.0358
     7         H         -1.3069     -1.6668     -0.4572
     8         H          0.0525      1.4397      1.0660
     9         H         -0.7699      1.9733     -0.4566
    10         H          1.0153      1.8707     -0.4059
    11         H          1.1312     -1.8069     -0.3880
    12         H          2.1128     -0.3116     -0.3663
    13         H          1.1712     -0.7849      1.1064

 General Reference for PM7:
 "Optimization of Parameters for Semiempirical Methods VI: More Modifications to the 
 NDDO Approximations and Re-optimization of Parameters", J. J. P. Stewart, J. Mol. Mod., 1:32, 19 (2013)
 https://link.springer.com/article/10.1007/s00894-012-1667-x

           Empirical Formula: C3 H9 N  =    13 atoms



      MOLECULAR POINT GROUP   :   C3v 


      RHF CALCULATION, NO. OF DOUBLY OCCUPIED LEVELS = 13


          Geometry optimization using EF

          DIAGONAL MATRIX USED AS START HESSIAN

 CYCLE:     1 TIME:   0.004 TIME LEFT:  2.00D  GRAD.:    37.180 HEAT: -4.997027
 CYCLE:     2 TIME:   0.008 TIME LEFT:  2.00D  GRAD.:    24.257 HEAT: -5.519345
 CYCLE:     3 TIME:   0.004 TIME LEFT:  2.00D  GRAD.:    12.028 HEAT: -5.799806
 CYCLE:     4 TIME:   0.000 TIME LEFT:  2.00D  GRAD.:    20.062 HEAT: -5.881163
 CYCLE:     5 TIME:   0.004 TIME LEFT:  2.00D  GRAD.:    10.584 HEAT: -6.003192
 CYCLE:     6 TIME:   0.004 TIME LEFT:  2.00D  GRAD.:     3.389 HEAT: -6.124457
 CYCLE:     7 TIME:   0.004 TIME LEFT:  2.00D  GRAD.:     8.062 HEAT: -6.156273
 CYCLE:     8 TIME:   0.004 TIME LEFT:  2.00D  GRAD.:     8.822 HEAT: -6.161594
 CYCLE:     9 TIME:   0.004 TIME LEFT:  2.00D  GRAD.:     4.230 HEAT: -6.175539
 CYCLE:    10 TIME:   0.000 TIME LEFT:  2.00D  GRAD.:     3.155 HEAT: -6.185649
 CYCLE:    11 TIME:   0.004 TIME LEFT:  2.00D  GRAD.:     2.213 HEAT: -6.187939
 CYCLE:    12 TIME:   0.004 TIME LEFT:  2.00D  GRAD.:     2.965 HEAT: -6.186961
 CYCLE:    13 TIME:   0.004 TIME LEFT:  2.00D  GRAD.:     2.685 HEAT: -6.187280
 CYCLE:    14 TIME:   0.000 TIME LEFT:  2.00D  GRAD.:     5.260 HEAT: -6.179411
 CYCLE:    15 TIME:   0.004 TIME LEFT:  2.00D  GRAD.:     1.943 HEAT: -6.188142
 CYCLE:    16 TIME:   0.004 TIME LEFT:  2.00D  GRAD.:     2.209 HEAT: -6.187813
 CYCLE:    17 TIME:   0.004 TIME LEFT:  2.00D  GRAD.:     0.217 HEAT: -6.189625

     GRADIENT =  0.21718 IS LESS THAN CUTOFF =  1.00000



 -------------------------------------------------------------------------------
 PM7 XYZ

 freesolv_65 - geometry optimisation


     GEOMETRY OPTIMISED USING EIGENVECTOR FOLLOWING (EF).     
     SCF FIELD WAS ACHIEVED                                   


                              PM7 CALCULATION
                                                       MOPAC v23.0.3 Linux
                                                       Fri Jul 25 15:25:02 2025




          FINAL HEAT OF FORMATION =         -6.18962 KCAL/MOL =     -25.89739 KJ/MOL


          COSMO AREA              =        110.92 SQUARE ANGSTROMS
          COSMO VOLUME            =         97.74 CUBIC ANGSTROMS

          GRADIENT NORM           =          0.21718          =       0.06023 PER ATOM
          IONIZATION POTENTIAL    =          8.834765 EV
          HOMO LUMO ENERGIES (EV) =         -8.835  3.024
          NO. OF FILLED LEVELS    =         13
          MOLECULAR WEIGHT        =         59.1108         POINT GROUP:  C3v 

          MOLECULAR DIMENSIONS (Angstroms)

            Atom       Atom       Distance
            H    10    H     7     4.20490
            H     5    H    12     3.64175
            N     2    H     8     1.56221


          SCF CALCULATIONS        =         25

          WALL-CLOCK TIME         =      0.066 SECONDS
          COMPUTATION TIME        =      1.337 SECONDS




   ATOM   CHEMICAL          X               Y               Z
  NUMBER   SYMBOL      (ANGSTROMS)     (ANGSTROMS)     (ANGSTROMS)

     1       C         -1.25156754  *  -0.63066273  *  -0.06826962  *
     2       N          0.01426509  *  -0.00194864  *  -0.50434400  *
     3       C          0.08159095  *   1.40038161  *  -0.03867629  *
     4       C          1.17299461  *  -0.77010206  *   0.00063083  *
     5       H         -2.09664503  *  -0.07081644  *  -0.50202277  *
     6       H         -1.38823364  *  -0.67943805  *   1.02158713  *
     7       H         -1.29965501  *  -1.65512018  *  -0.47296081  *
     8       H          0.05785693  *   1.52291049  *   1.05350317  *
     9       H         -0.76264355  *   1.96149069  *  -0.47208922  *
    10       H          1.00739001  *   1.86000957  *  -0.42229403  *
    11       H          1.12625959  *  -1.79461469  *  -0.40408975  *
    12       H          2.09962923  *  -0.31204131  *  -0.38278495  *
    13       H          1.24121325  *  -0.83069112  *   1.09619800  *

                             CARTESIAN COORDINATES

   1    C       -1.251567542    -0.630662729    -0.068269623
   2    N        0.014265090    -0.001948637    -0.504344005
   3    C        0.081590947     1.400381607    -0.038676294
   4    C        1.172994613    -0.770102061     0.000630825
   5    H       -2.096645030    -0.070816443    -0.502022775
   6    H       -1.388233636    -0.679438049     1.021587129
   7    H       -1.299655005    -1.655120176    -0.472960806
   8    H        0.057856930     1.522910485     1.053503171
   9    H       -0.762643548     1.961490691    -0.472089221
  10    H        1.007390009     1.860009571    -0.422294033
  11    H        1.126259594    -1.794614686    -0.404089753
  12    H        2.099629231    -0.312041308    -0.382784952
  13    H        1.241213249    -0.830691116     1.096197995


           Empirical Formula: C3 H9 N  =    13 atoms



      MOLECULAR POINT GROUP   :   C3v 


                  EIGENVALUES  
 -34.83504 -24.46521 -24.46365 -21.75000 -15.88840 -15.88827 -15.82677 -13.49402
 -13.49331 -12.62081 -12.29002 -12.28972  -8.83476   3.02435   4.77266   4.77291
   5.63932   5.63967   5.73035   5.81109   5.98077   5.98082   6.46548   6.74030
   6.74075


              NET ATOMIC CHARGES AND DIPOLE CONTRIBUTIONS

  ATOM NO.   TYPE          CHARGE      No. of ELECS.   s-Pop       p-Pop       
    1          C          -0.285701        4.2857     1.06252     3.22318
    2          N          -0.362719        5.3627     1.68783     3.67489
    3          C          -0.285669        4.2857     1.06249     3.22318
    4          C          -0.285683        4.2857     1.06249     3.22319
    5          H           0.144593        0.8554     0.85541
    6          H           0.117408        0.8826     0.88259
    7          H           0.144584        0.8554     0.85542
    8          H           0.117409        0.8826     0.88259
    9          H           0.144588        0.8554     0.85541
   10          H           0.144598        0.8554     0.85540
   11          H           0.144594        0.8554     0.85541
   12          H           0.144592        0.8554     0.85541
   13          H           0.117406        0.8826     0.88259
 DIPOLE           X         Y         Z       TOTAL
 POINT-CHG.    -0.027     0.004     0.968     0.969
 HYBRID        -0.022     0.003     0.790     0.791
 SUM           -0.050     0.007     1.759     1.759


          ATOMIC ORBITAL ELECTRON POPULATIONS

     Atom    s        px        py        pz   
    1  C   1.06252   0.97964   1.12379   1.11975
    2  N   1.68783   1.05739   1.05698   1.56052
    3  C   1.06249   1.17054   0.93584   1.11680
    4  C   1.06249   1.01017   1.10048   1.11254
    5  H   0.85541
    6  H   0.88259
    7  H   0.85542
    8  H   0.88259
    9  H   0.85541
   10  H   0.85540
   11  H   0.85541
   12  H   0.85541
   13  H   0.88259

 **********************
 *                    *
 * JOB ENDED NORMALLY *
 *                    *
 **********************



 TOTAL JOB TIME:             0.07 SECONDS

 == MOPAC DONE ==
