 *******************************************************************************
 **                                                                           **
 **                              MOPAC v23.0.3                                **
 **                                                                           **
 *******************************************************************************
 **          Digital Object Identifier (DOI): 10.5281/zenodo.6511958          **
 **    Visit the DOI location for information on how to cite this program.    **
 *******************************************************************************

                              PM7 CALCULATION RESULTS

 *******************************************************************************
 *  CALCULATION DONE:                                Fri Jul 25 15:22:58 2025  *
 *  PM7        - The PM7 Hamiltonian to be used
 *  XYZ        - CARTESIAN COORDINATE SYSTEM TO BE USED
 *  T=         - A TIME OF 172800.0 SECONDS REQUESTED
 *  DUMP=N     - RESTART FILE WRITTEN EVERY 7200.0 SECONDS REQUESTED
 *******************************************************************************
PM7 XYZ

 freesolv_263 - geometry optimisation
   ATOM   CHEMICAL          X               Y               Z
  NUMBER   SYMBOL      (ANGSTROMS)     (ANGSTROMS)     (ANGSTROMS)

     1       C          0.12402200  *  -0.91942600  *   0.78775400  *
     2       C         -1.04690300  *  -0.17039300  *   0.15206800  *
     3       O         -2.26756500  *  -0.62854200  *   0.72090600  *
     4       N         -3.48742600  *  -0.11893300  *   0.32636900  *
     5       O         -4.53266700  *  -0.54994400  *   0.85202200  *
     6       O         -3.56661300  *   0.85859200  *  -0.63930200  *
     7       C          1.46440800  *  -0.48719400  *   0.19335200  *
     8       O          1.72164100  *   0.87792600  *   0.50367600  *
     9       N          2.87219600  *   1.51254100  *   0.08340300  *
    10       O          3.05585300  *   2.71024500  *   0.37728200  *
    11       O          3.81972000  *   0.84221500  *  -0.65629500  *
    12       H         -0.00869400  *  -2.01017900  *   0.61877600  *
    13       H          0.13095000  *  -0.73682800  *   1.88446500  *
    14       H         -1.06100500  *  -0.35503500  *  -0.94420900  *
    15       H         -0.94401000  *   0.92085400  *   0.33707000  *
    16       H          2.27130900  *  -1.11833800  *   0.62416500  *
    17       H          1.45478600  *  -0.62756100  *  -0.90952400  *



          CARTESIAN COORDINATES 

    NO.       ATOM           X           Y           Z

     1         C          0.1240     -0.9194      0.7878
     2         C         -1.0469     -0.1704      0.1521
     3         O         -2.2676     -0.6285      0.7209
     4         N         -3.4874     -0.1189      0.3264
     5         O         -4.5327     -0.5499      0.8520
     6         O         -3.5666      0.8586     -0.6393
     7         C          1.4644     -0.4872      0.1934
     8         O          1.7216      0.8779      0.5037
     9         N          2.8722      1.5125      0.0834
    10         O          3.0559      2.7102      0.3773
    11         O          3.8197      0.8422     -0.6563
    12         H         -0.0087     -2.0102      0.6188
    13         H          0.1310     -0.7368      1.8845
    14         H         -1.0610     -0.3550     -0.9442
    15         H         -0.9440      0.9209      0.3371
    16         H          2.2713     -1.1183      0.6242
    17         H          1.4548     -0.6276     -0.9095

 General Reference for PM7:
 "Optimization of Parameters for Semiempirical Methods VI: More Modifications to the 
 NDDO Approximations and Re-optimization of Parameters", J. J. P. Stewart, J. Mol. Mod., 1:32, 19 (2013)
 https://link.springer.com/article/10.1007/s00894-012-1667-x

           Empirical Formula: C3 H6 N2 O6  =    17 atoms



      MOLECULAR POINT GROUP   :   C1  


      RHF CALCULATION, NO. OF DOUBLY OCCUPIED LEVELS = 32


          Geometry optimization using EF

          DIAGONAL MATRIX USED AS START HESSIAN

 CYCLE:     1 TIME:   0.012 TIME LEFT:  2.00D  GRAD.:   404.446 HEAT: -7.416311
 CYCLE:     2 TIME:   0.008 TIME LEFT:  2.00D  GRAD.:    55.594 HEAT: -53.92229
 CYCLE:     3 TIME:   0.016 TIME LEFT:  2.00D  GRAD.:    86.996 HEAT: -55.50964
 CYCLE:     4 TIME:   0.008 TIME LEFT:  2.00D  GRAD.:    80.760 HEAT: -56.66311
 CYCLE:     5 TIME:   0.004 TIME LEFT:  2.00D  GRAD.:    48.064 HEAT: -58.23793
 CYCLE:     6 TIME:   0.008 TIME LEFT:  2.00D  GRAD.:    74.563 HEAT: -59.38575
 CYCLE:     7 TIME:   0.012 TIME LEFT:  2.00D  GRAD.:    80.899 HEAT: -59.98444
 CYCLE:     8 TIME:   0.008 TIME LEFT:  2.00D  GRAD.:    32.857 HEAT: -60.73214
 CYCLE:     9 TIME:   0.008 TIME LEFT:  2.00D  GRAD.:    18.884 HEAT: -61.08946
 CYCLE:    10 TIME:   0.004 TIME LEFT:  2.00D  GRAD.:    34.216 HEAT: -61.31854
 CYCLE:    11 TIME:   0.004 TIME LEFT:  2.00D  GRAD.:    19.079 HEAT: -61.73458
 CYCLE:    12 TIME:   0.008 TIME LEFT:  2.00D  GRAD.:    23.135 HEAT: -62.03165
 CYCLE:    13 TIME:   0.004 TIME LEFT:  2.00D  GRAD.:    26.654 HEAT: -62.27516
 CYCLE:    14 TIME:   0.008 TIME LEFT:  2.00D  GRAD.:    16.619 HEAT: -62.35555
 CYCLE:    15 TIME:   0.012 TIME LEFT:  2.00D  GRAD.:     9.524 HEAT: -62.43175
 CYCLE:    16 TIME:   0.004 TIME LEFT:  2.00D  GRAD.:     8.128 HEAT: -62.45453
 CYCLE:    17 TIME:   0.004 TIME LEFT:  2.00D  GRAD.:    12.390 HEAT: -62.45552
 CYCLE:    18 TIME:   0.004 TIME LEFT:  2.00D  GRAD.:     6.854 HEAT: -62.49434
 CYCLE:    19 TIME:   0.008 TIME LEFT:  2.00D  GRAD.:     5.808 HEAT: -62.50626
 CYCLE:    20 TIME:   0.004 TIME LEFT:  2.00D  GRAD.:     5.525 HEAT: -62.51842
 CYCLE:    21 TIME:   0.012 TIME LEFT:  2.00D  GRAD.:     6.615 HEAT: -62.52213
 CYCLE:    22 TIME:   0.012 TIME LEFT:  2.00D  GRAD.:     7.361 HEAT: -62.53118
 CYCLE:    23 TIME:   0.012 TIME LEFT:  2.00D  GRAD.:     5.120 HEAT: -62.53891
 CYCLE:    24 TIME:   0.016 TIME LEFT:  2.00D  GRAD.:     6.153 HEAT: -62.54137
 CYCLE:    25 TIME:   0.008 TIME LEFT:  2.00D  GRAD.:     3.488 HEAT: -62.54720
 CYCLE:    26 TIME:   0.012 TIME LEFT:  2.00D  GRAD.:     4.706 HEAT: -62.54887
 CYCLE:    27 TIME:   0.012 TIME LEFT:  2.00D  GRAD.:     3.209 HEAT: -62.55178
 CYCLE:    28 TIME:   0.020 TIME LEFT:  2.00D  GRAD.:     4.812 HEAT: -62.55111
 CYCLE:    29 TIME:   0.012 TIME LEFT:  2.00D  GRAD.:     1.678 HEAT: -62.55586
 CYCLE:    30 TIME:   0.012 TIME LEFT:  2.00D  GRAD.:     4.395 HEAT: -62.55208
 CYCLE:    31 TIME:   0.012 TIME LEFT:  2.00D  GRAD.:     1.665 HEAT: -62.55766
 CYCLE:    32 TIME:   0.020 TIME LEFT:  2.00D  GRAD.:     2.861 HEAT: -62.55657
 CYCLE:    33 TIME:   0.012 TIME LEFT:  2.00D  GRAD.:     0.739 HEAT: -62.55912

     GRADIENT =  0.73880 IS LESS THAN CUTOFF =  1.00000



 -------------------------------------------------------------------------------
 PM7 XYZ

 freesolv_263 - geometry optimisation


     GEOMETRY OPTIMISED USING EIGENVECTOR FOLLOWING (EF).     
     SCF FIELD WAS ACHIEVED                                   


                              PM7 CALCULATION
                                                       MOPAC v23.0.3 Linux
                                                       Fri Jul 25 15:22:59 2025




          FINAL HEAT OF FORMATION =        -62.55913 KCAL/MOL =    -261.74738 KJ/MOL


          COSMO AREA              =        181.46 SQUARE ANGSTROMS
          COSMO VOLUME            =        168.55 CUBIC ANGSTROMS

          GRADIENT NORM           =          0.73880          =       0.17919 PER ATOM
          IONIZATION POTENTIAL    =         11.813297 EV
          HOMO LUMO ENERGIES (EV) =        -11.813 -0.941
          NO. OF FILLED LEVELS    =         32
          MOLECULAR WEIGHT        =        166.0902         POINT GROUP:  C1  

          MOLECULAR DIMENSIONS (Angstroms)

            Atom       Atom       Distance
            O    11    O     5     8.14704
            H    12    O    10     4.02708
            H    13    O     6     3.11662


          SCF CALCULATIONS        =         44

          WALL-CLOCK TIME         =      0.336 SECONDS
          COMPUTATION TIME        =      2.440 SECONDS




   ATOM   CHEMICAL          X               Y               Z
  NUMBER   SYMBOL      (ANGSTROMS)     (ANGSTROMS)     (ANGSTROMS)

     1       C          0.10892876  *  -0.85025998  *   0.77015831  *
     2       C         -1.01865151  *  -0.07435040  *   0.08689353  *
     3       O         -2.18449704  *  -0.61628286  *   0.72707071  *
     4       N         -3.40162507  *  -0.06965753  *   0.29163238  *
     5       O         -4.34385075  *  -0.54708398  *   0.86494089  *
     6       O         -3.35147019  *   0.77270170  *  -0.57133614  *
     7       C          1.45389377  *  -0.49761732  *   0.14499327  *
     8       O          1.62145203  *   0.87970489  *   0.51545175  *
     9       N          2.81696418  *   1.46491905  *   0.06674752  *
    10       O          2.91129632  *   2.61617684  *   0.39632707  *
    11       O          3.56818886  *   0.76445000  *  -0.56816927  *
    12       H         -0.06924316  *  -1.94377603  *   0.69147336  *
    13       H          0.11394621  *  -0.63017254  *   1.86051779  *
    14       H         -1.07185150  *  -0.25767778  *  -1.00075703  *
    15       H         -0.95894586  *   1.01450107  *   0.27350747  *
    16       H          2.28119222  *  -1.09917277  *   0.56559485  *
    17       H          1.46200649  *  -0.59178327  *  -0.95607668  *

                             CARTESIAN COORDINATES

   1    C        0.108928764    -0.850259982     0.770158311
   2    C       -1.018651511    -0.074350399     0.086893526
   3    O       -2.184497036    -0.616282857     0.727070710
   4    N       -3.401625070    -0.069657533     0.291632378
   5    O       -4.343850745    -0.547083984     0.864940887
   6    O       -3.351470189     0.772701701    -0.571336140
   7    C        1.453893769    -0.497617322     0.144993275
   8    O        1.621452032     0.879704892     0.515451747
   9    N        2.816964181     1.464919055     0.066747517
  10    O        2.911296320     2.616176839     0.396327069
  11    O        3.568188860     0.764449997    -0.568169269
  12    H       -0.069243158    -1.943776025     0.691473365
  13    H        0.113946213    -0.630172543     1.860517794
  14    H       -1.071851496    -0.257677784    -1.000757028
  15    H       -0.958945857     1.014501071     0.273507471
  16    H        2.281192223    -1.099172773     0.565594854
  17    H        1.462006494    -0.591783269    -0.956076685


           Empirical Formula: C3 H6 N2 O6  =    17 atoms



      MOLECULAR POINT GROUP   :   C1  


                  EIGENVALUES  
 -37.47618 -37.36475 -32.25820 -32.12397 -30.94142 -30.49034 -28.69102 -25.88732
 -25.04508 -23.84238 -21.48247 -20.35457 -19.99416 -18.74892 -18.70675 -18.41450
 -18.36825 -16.88667 -16.36603 -15.47783 -15.25173 -14.25510 -13.88410 -13.39170
 -12.28326 -12.25304 -12.16001 -12.15821 -12.09080 -12.02949 -11.86156 -11.81330
  -0.94076  -0.81313  -0.34107  -0.22774   1.50945   1.67063   2.64033   2.93461
   3.58536   3.65845   4.26341   4.45801   4.57643   4.68935   4.79982   4.84671
   5.04295   5.40070


              NET ATOMIC CHARGES AND DIPOLE CONTRIBUTIONS

  ATOM NO.   TYPE          CHARGE      No. of ELECS.   s-Pop       p-Pop       
    1          C          -0.307835        4.3078     1.06318     3.24465
    2          C          -0.059027        4.0590     1.09810     2.96092
    3          O          -0.313213        6.3132     1.92430     4.38892
    4          N           0.719158        4.2808     1.45649     2.82436
    5          O          -0.297358        6.2974     1.93926     4.35809
    6          O          -0.372738        6.3727     1.93979     4.43295
    7          C          -0.062925        4.0629     1.09619     2.96673
    8          O          -0.308716        6.3087     1.92486     4.38385
    9          N           0.716604        4.2834     1.45709     2.82631
   10          O          -0.292298        6.2923     1.93918     4.35312
   11          O          -0.376109        6.3761     1.93995     4.43616
   12          H           0.173347        0.8267     0.82665
   13          H           0.177693        0.8223     0.82231
   14          H           0.145315        0.8547     0.85469
   15          H           0.158615        0.8414     0.84139
   16          H           0.150319        0.8497     0.84968
   17          H           0.149170        0.8508     0.85083
 DIPOLE           X         Y         Z       TOTAL
 POINT-CHG.     1.443    -2.584    -0.174     2.965
 HYBRID        -0.142     0.173     0.093     0.242
 SUM            1.301    -2.411    -0.081     2.741


          ATOMIC ORBITAL ELECTRON POPULATIONS

     Atom    s        px        py        pz   
    1  C   1.06318   0.97309   1.13352   1.13804
    2  C   1.09810   0.81049   1.08717   1.06327
    3  O   1.92430   1.17458   1.60023   1.61410
    4  N   1.45649   0.94449   0.93854   0.94132
    5  O   1.93926   1.24894   1.58373   1.52542
    6  O   1.93979   1.87249   1.28797   1.27248
    7  C   1.09619   1.03452   0.81674   1.11547
    8  O   1.92486   1.33482   1.32281   1.72623
    9  N   1.45709   0.93337   0.96167   0.93126
   10  O   1.93918   1.78741   0.97644   1.58926
   11  O   1.93995   1.44568   1.56463   1.42585
   12  H   0.82665
   13  H   0.82231
   14  H   0.85469
   15  H   0.84139
   16  H   0.84968
   17  H   0.85083

 **********************
 *                    *
 * JOB ENDED NORMALLY *
 *                    *
 **********************



 TOTAL JOB TIME:             0.34 SECONDS

 == MOPAC DONE ==
