 *******************************************************************************
 **                                                                           **
 **                              MOPAC v23.0.3                                **
 **                                                                           **
 *******************************************************************************
 **          Digital Object Identifier (DOI): 10.5281/zenodo.6511958          **
 **    Visit the DOI location for information on how to cite this program.    **
 *******************************************************************************

                              PM7 CALCULATION RESULTS

 *******************************************************************************
 *  CALCULATION DONE:                                Fri Jul 25 15:21:58 2025  *
 *  PM7        - The PM7 Hamiltonian to be used
 *  XYZ        - CARTESIAN COORDINATE SYSTEM TO BE USED
 *  T=         - A TIME OF 172800.0 SECONDS REQUESTED
 *  DUMP=N     - RESTART FILE WRITTEN EVERY 7200.0 SECONDS REQUESTED
 *******************************************************************************
PM7 XYZ

 freesolv_128 - geometry optimisation
   ATOM   CHEMICAL          X               Y               Z
  NUMBER   SYMBOL      (ANGSTROMS)     (ANGSTROMS)     (ANGSTROMS)

     1       C         -3.22406100  *   0.15459200  *   1.28901600  *
     2       C         -2.06012700  *   0.66831500  *   0.44657300  *
     3       C         -1.01031200  *  -0.42678900  *   0.22598000  *
     4       C          0.15734400  *   0.09293900  *  -0.62086100  *
     5       C          1.21018100  *  -1.00423900  *  -0.83961800  *
     6       C          2.37097800  *  -0.52639900  *  -1.72048900  *
     7       C          3.19637400  *   0.47267200  *  -1.02875200  *
     8       C          3.87324600  *   1.29297900  *  -0.46105900  *
     9       H         -2.86252500  *  -0.17547400  *   2.28623000  *
    10       H         -3.96674900  *   0.96759000  *   1.43190700  *
    11       H         -3.72322600  *  -0.69685600  *   0.77915700  *
    12       H         -2.45209500  *   1.01519300  *  -0.53444300  *
    13       H         -1.59521200  *   1.53443500  *   0.96624700  *
    14       H         -1.48359900  *  -1.29108100  *  -0.29038100  *
    15       H         -0.62525300  *  -0.77102900  *   1.21131700  *
    16       H         -0.22754600  *   0.43515400  *  -1.60682500  *
    17       H          0.62462200  *   0.95962100  *  -0.10409400  *
    18       H          0.72832600  *  -1.87192100  *  -1.34124500  *
    19       H          1.60364900  *  -1.35475700  *   0.14056300  *
    20       H          3.01450600  *  -1.39487700  *  -1.97517600  *
    21       H          1.98445600  *  -0.09322900  *  -2.66760300  *
    22       H          4.46702300  *   2.01316200  *   0.03758300  *



          CARTESIAN COORDINATES 

    NO.       ATOM           X           Y           Z

     1         C         -3.2241      0.1546      1.2890
     2         C         -2.0601      0.6683      0.4466
     3         C         -1.0103     -0.4268      0.2260
     4         C          0.1573      0.0929     -0.6209
     5         C          1.2102     -1.0042     -0.8396
     6         C          2.3710     -0.5264     -1.7205
     7         C          3.1964      0.4727     -1.0288
     8         C          3.8732      1.2930     -0.4611
     9         H         -2.8625     -0.1755      2.2862
    10         H         -3.9667      0.9676      1.4319
    11         H         -3.7232     -0.6969      0.7792
    12         H         -2.4521      1.0152     -0.5344
    13         H         -1.5952      1.5344      0.9662
    14         H         -1.4836     -1.2911     -0.2904
    15         H         -0.6253     -0.7710      1.2113
    16         H         -0.2275      0.4352     -1.6068
    17         H          0.6246      0.9596     -0.1041
    18         H          0.7283     -1.8719     -1.3412
    19         H          1.6036     -1.3548      0.1406
    20         H          3.0145     -1.3949     -1.9752
    21         H          1.9845     -0.0932     -2.6676
    22         H          4.4670      2.0132      0.0376

 General Reference for PM7:
 "Optimization of Parameters for Semiempirical Methods VI: More Modifications to the 
 NDDO Approximations and Re-optimization of Parameters", J. J. P. Stewart, J. Mol. Mod., 1:32, 19 (2013)
 https://link.springer.com/article/10.1007/s00894-012-1667-x

           Empirical Formula: C8 H14  =    22 atoms



      MOLECULAR POINT GROUP   :   C1  


      RHF CALCULATION, NO. OF DOUBLY OCCUPIED LEVELS = 23


          Geometry optimization using EF

          DIAGONAL MATRIX USED AS START HESSIAN

 CYCLE:     1 TIME:   0.012 TIME LEFT:  2.00D  GRAD.:    67.769 HEAT:  23.41978
 CYCLE:     2 TIME:   0.031 TIME LEFT:  2.00D  GRAD.:    74.853 HEAT:  23.01539
 CYCLE:     3 TIME:   0.012 TIME LEFT:  2.00D  GRAD.:    19.429 HEAT:  22.18645
 CYCLE:     4 TIME:   0.008 TIME LEFT:  2.00D  GRAD.:    19.575 HEAT:  21.88585
 CYCLE:     5 TIME:   0.008 TIME LEFT:  2.00D  GRAD.:    33.434 HEAT:  21.80867
 CYCLE:     6 TIME:   0.008 TIME LEFT:  2.00D  GRAD.:    22.509 HEAT:  21.77414
 CYCLE:     7 TIME:   0.016 TIME LEFT:  2.00D  GRAD.:    20.478 HEAT:  21.63895
 CYCLE:     8 TIME:   0.004 TIME LEFT:  2.00D  GRAD.:    14.985 HEAT:  21.61472
 CYCLE:     9 TIME:   0.016 TIME LEFT:  2.00D  GRAD.:     6.850 HEAT:  21.56297
 CYCLE:    10 TIME:   0.012 TIME LEFT:  2.00D  GRAD.:     8.872 HEAT:  21.56118
 CYCLE:    11 TIME:   0.012 TIME LEFT:  2.00D  GRAD.:     2.282 HEAT:  21.55135
 CYCLE:    12 TIME:   0.012 TIME LEFT:  2.00D  GRAD.:     8.154 HEAT:  21.56091
 CYCLE:    13 TIME:   0.016 TIME LEFT:  2.00D  GRAD.:     2.837 HEAT:  21.54845
 CYCLE:    14 TIME:   0.020 TIME LEFT:  2.00D  GRAD.:     3.057 HEAT:  21.54730
 CYCLE:    15 TIME:   0.012 TIME LEFT:  2.00D  GRAD.:     2.702 HEAT:  21.54566
 CYCLE:    16 TIME:   0.016 TIME LEFT:  2.00D  GRAD.:     4.470 HEAT:  21.54609
 CYCLE:    17 TIME:   0.012 TIME LEFT:  2.00D  GRAD.:     4.335 HEAT:  21.54231
 CYCLE:    18 TIME:   0.012 TIME LEFT:  2.00D  GRAD.:     3.773 HEAT:  21.54212
 CYCLE:    19 TIME:   0.012 TIME LEFT:  2.00D  GRAD.:     5.986 HEAT:  21.54351
 CYCLE:    20 TIME:   0.012 TIME LEFT:  2.00D  GRAD.:     3.644 HEAT:  21.53796
 CYCLE:    21 TIME:   0.023 TIME LEFT:  2.00D  GRAD.:     3.586 HEAT:  21.53625
 CYCLE:    22 TIME:   0.016 TIME LEFT:  2.00D  GRAD.:     3.339 HEAT:  21.53563
 CYCLE:    23 TIME:   0.012 TIME LEFT:  2.00D  GRAD.:     3.720 HEAT:  21.53594
 CYCLE:    24 TIME:   0.012 TIME LEFT:  2.00D  GRAD.:     4.085 HEAT:  21.53498
 CYCLE:    25 TIME:   0.012 TIME LEFT:  2.00D  GRAD.:     2.136 HEAT:  21.53246
 CYCLE:    26 TIME:   0.016 TIME LEFT:  2.00D  GRAD.:     5.497 HEAT:  21.53939
 CYCLE:    27 TIME:   0.012 TIME LEFT:  2.00D  GRAD.:     1.475 HEAT:  21.53112
 CYCLE:    28 TIME:   0.012 TIME LEFT:  2.00D  GRAD.:     4.642 HEAT:  21.53783
 CYCLE:    29 TIME:   0.016 TIME LEFT:  2.00D  GRAD.:     1.361 HEAT:  21.53046
 CYCLE:    30 TIME:   0.012 TIME LEFT:  2.00D  GRAD.:     4.743 HEAT:  21.53832
 CYCLE:    31 TIME:   0.012 TIME LEFT:  2.00D  GRAD.:     1.224 HEAT:  21.53002
 CYCLE:    32 TIME:   0.012 TIME LEFT:  2.00D  GRAD.:     2.774 HEAT:  21.53213
 CYCLE:    33 TIME:   0.016 TIME LEFT:  2.00D  GRAD.:     1.134 HEAT:  21.52968
 CYCLE:    34 TIME:   0.012 TIME LEFT:  2.00D  GRAD.:     4.458 HEAT:  21.53630
 CYCLE:    35 TIME:   0.012 TIME LEFT:  2.00D  GRAD.:     0.578 HEAT:  21.52916

     GRADIENT =  0.57794 IS LESS THAN CUTOFF =  1.00000



 -------------------------------------------------------------------------------
 PM7 XYZ

 freesolv_128 - geometry optimisation


     GEOMETRY OPTIMISED USING EIGENVECTOR FOLLOWING (EF).     
     SCF FIELD WAS ACHIEVED                                   


                              PM7 CALCULATION
                                                       MOPAC v23.0.3 Linux
                                                       Fri Jul 25 15:21:58 2025




          FINAL HEAT OF FORMATION =         21.52916 KCAL/MOL =      90.07799 KJ/MOL


          COSMO AREA              =        185.23 SQUARE ANGSTROMS
          COSMO VOLUME            =        178.26 CUBIC ANGSTROMS

          GRADIENT NORM           =          0.57794          =       0.12322 PER ATOM
          IONIZATION POTENTIAL    =         10.579024 EV
          HOMO LUMO ENERGIES (EV) =        -10.579  1.705
          NO. OF FILLED LEVELS    =         23
          MOLECULAR WEIGHT        =        110.1986         POINT GROUP:  C1  

          MOLECULAR DIMENSIONS (Angstroms)

            Atom       Atom       Distance
            H    22    H    11     8.59212
            H    20    H    10     5.26910
            H     9    H    21     2.95188


          SCF CALCULATIONS        =         44

          WALL-CLOCK TIME         =      0.492 SECONDS
          COMPUTATION TIME        =      4.082 SECONDS




   ATOM   CHEMICAL          X               Y               Z
  NUMBER   SYMBOL      (ANGSTROMS)     (ANGSTROMS)     (ANGSTROMS)

     1       C         -3.21349996  *   0.15727542  *   1.28516870  *
     2       C         -2.04872233  *   0.67508833  *   0.44116413  *
     3       C         -1.00101606  *  -0.42538422  *   0.22523098  *
     4       C          0.16504502  *   0.09246578  *  -0.62491567  *
     5       C          1.21079002  *  -1.00913103  *  -0.83546638  *
     6       C          2.37610912  *  -0.51305302  *  -1.71371071  *
     7       C          3.17219763  *   0.46402368  *  -1.02867085  *
     8       C          3.84472712  *   1.28778973  *  -0.45034870  *
     9       H         -2.87430122  *  -0.18014774  *   2.27081315  *
    10       H         -3.96588310  *   0.93684545  *   1.44485837  *
    11       H         -3.71347781  *  -0.68874543  *   0.80129344  *
    12       H         -2.42102404  *   1.04047300  *  -0.53430782  *
    13       H         -1.58289149  *   1.54936606  *   0.93450705  *
    14       H         -1.46888187  *  -1.30003764  *  -0.26301948  *
    15       H         -0.62781551  *  -0.78654413  *   1.20177587  *
    16       H         -0.20736311  *   0.45738804  *  -1.60009260  *
    17       H          0.63545939  *   0.96779378  *  -0.13577279  *
    18       H          0.74176309  *  -1.89174624  *  -1.30869648  *
    19       H          1.59901435  *  -1.35511527  *   0.14162446  *
    20       H          3.00665145  *  -1.38191089  *  -2.01807114  *
    21       H          1.97663320  *  -0.09499258  *  -2.66766589  *
    22       H          4.41608419  *   1.98602801  *   0.03954276  *

                             CARTESIAN COORDINATES

   1    C       -3.213499956     0.157275423     1.285168702
   2    C       -2.048722329     0.675088332     0.441164125
   3    C       -1.001016059    -0.425384215     0.225230978
   4    C        0.165045018     0.092465783    -0.624915672
   5    C        1.210790021    -1.009131026    -0.835466378
   6    C        2.376109119    -0.513053025    -1.713710709
   7    C        3.172197632     0.464023684    -1.028670852
   8    C        3.844727117     1.287789732    -0.450348695
   9    H       -2.874301217    -0.180147737     2.270813154
  10    H       -3.965883101     0.936845451     1.444858367
  11    H       -3.713477813    -0.688745431     0.801293441
  12    H       -2.421024039     1.040472997    -0.534307819
  13    H       -1.582891487     1.549366059     0.934507054
  14    H       -1.468881871    -1.300037636    -0.263019484
  15    H       -0.627815507    -0.786544133     1.201775866
  16    H       -0.207363107     0.457388037    -1.600092604
  17    H        0.635459391     0.967793776    -0.135772791
  18    H        0.741763086    -1.891746237    -1.308696481
  19    H        1.599014353    -1.355115273     0.141624464
  20    H        3.006651451    -1.381910894    -2.018071143
  21    H        1.976633198    -0.094992576    -2.667665886
  22    H        4.416084189     1.986028012     0.039542757


           Empirical Formula: C8 H14  =    22 atoms



      MOLECULAR POINT GROUP   :   C1  


                  EIGENVALUES  
 -29.50839 -28.03866 -26.04829 -24.73672 -22.11784 -20.22270 -19.96197 -18.04933
 -16.63638 -15.57615 -15.45918 -14.92958 -14.16295 -13.75044 -13.60835 -12.68759
 -12.49702 -11.86994 -11.62713 -11.55786 -11.14565 -10.68639 -10.57902   1.70517
   1.78015   3.76935   4.06054   4.25672   4.45334   4.75722   4.84501   5.32155
   5.40694   5.57639   5.84016   5.89440   5.96745   6.08984   6.24913   6.45385
   6.51628   6.65418   6.71735   6.72840   7.05555   7.16154


              NET ATOMIC CHARGES AND DIPOLE CONTRIBUTIONS

  ATOM NO.   TYPE          CHARGE      No. of ELECS.   s-Pop       p-Pop       
    1          C          -0.439576        4.4396     1.05198     3.38760
    2          C          -0.249276        4.2493     1.05536     3.19391
    3          C          -0.272994        4.2730     1.06003     3.21297
    4          C          -0.274890        4.2749     1.06017     3.21472
    5          C          -0.255432        4.2554     1.05999     3.19544
    6          C          -0.249920        4.2499     1.04107     3.20885
    7          C          -0.047019        4.0470     1.10808     2.93894
    8          C          -0.247164        4.2472     1.13160     3.11556
    9          H           0.142760        0.8572     0.85724
   10          H           0.140241        0.8598     0.85976
   11          H           0.141305        0.8587     0.85870
   12          H           0.133439        0.8666     0.86656
   13          H           0.135393        0.8646     0.86461
   14          H           0.135743        0.8643     0.86426
   15          H           0.137599        0.8624     0.86240
   16          H           0.136895        0.8631     0.86311
   17          H           0.145727        0.8543     0.85427
   18          H           0.137147        0.8629     0.86285
   19          H           0.144473        0.8555     0.85553
   20          H           0.158960        0.8410     0.84104
   21          H           0.161968        0.8380     0.83803
   22          H           0.184621        0.8154     0.81538
 DIPOLE           X         Y         Z       TOTAL
 POINT-CHG.    -0.746    -0.713    -0.393     1.105
 HYBRID         0.053     0.020     0.021     0.061
 SUM           -0.693    -0.693    -0.372     1.049


          ATOMIC ORBITAL ELECTRON POPULATIONS

     Atom    s        px        py        pz   
    1  C   1.05198   1.09546   1.15766   1.13448
    2  C   1.05536   1.01877   1.06306   1.11208
    3  C   1.06003   1.02532   1.06942   1.11823
    4  C   1.06017   1.02396   1.06859   1.12216
    5  C   1.05999   1.01420   1.06793   1.11332
    6  C   1.04107   1.05138   1.07826   1.07921
    7  C   1.10808   0.97666   0.97743   0.98485
    8  C   1.13160   1.03947   1.04146   1.03463
    9  H   0.85724
   10  H   0.85976
   11  H   0.85870
   12  H   0.86656
   13  H   0.86461
   14  H   0.86426
   15  H   0.86240
   16  H   0.86311
   17  H   0.85427
   18  H   0.86285
   19  H   0.85553
   20  H   0.84104
   21  H   0.83803
   22  H   0.81538

 **********************
 *                    *
 * JOB ENDED NORMALLY *
 *                    *
 **********************



 TOTAL JOB TIME:             0.49 SECONDS

 == MOPAC DONE ==
