 *******************************************************************************
 **                                                                           **
 **                              MOPAC v23.0.3                                **
 **                                                                           **
 *******************************************************************************
 **          Digital Object Identifier (DOI): 10.5281/zenodo.6511958          **
 **    Visit the DOI location for information on how to cite this program.    **
 *******************************************************************************

                              PM7 CALCULATION RESULTS

 *******************************************************************************
 *  CALCULATION DONE:                                Fri Jul 25 15:21:15 2025  *
 *  PM7        - The PM7 Hamiltonian to be used
 *  XYZ        - CARTESIAN COORDINATE SYSTEM TO BE USED
 *  T=         - A TIME OF 172800.0 SECONDS REQUESTED
 *  DUMP=N     - RESTART FILE WRITTEN EVERY 7200.0 SECONDS REQUESTED
 *******************************************************************************
PM7 XYZ

 freesolv_0 - geometry optimisation
   ATOM   CHEMICAL          X               Y               Z
  NUMBER   SYMBOL      (ANGSTROMS)     (ANGSTROMS)     (ANGSTROMS)

     1       C         -1.36486900  *   0.24685700  *   0.10428400  *
     2       N          0.08423400  *   0.09482000  *  -0.02986400  *
     3       C          0.69493800  *  -1.21772800  *   0.17945800  *
     4       C          0.90228300  *   1.22638500  *  -0.36485400  *
     5       O          0.38737500  *   2.36176500  *  -0.54746000  *
     6       H         -1.59260500  *   0.98021400  *   0.90645900  *
     7       H         -1.84457800  *  -0.72098900  *   0.36551600  *
     8       H         -1.79499700  *   0.60515500  *  -0.85476500  *
     9       H          0.47942000  *  -1.56968600  *   1.21033500  *
    10       H          1.79702800  *  -1.17850700  *   0.04449100  *
    11       H          0.27729100  *  -1.94430900  *  -0.54902100  *
    12       H          1.97447800  *   1.11602200  *  -0.46457900  *



          CARTESIAN COORDINATES 

    NO.       ATOM           X           Y           Z

     1         C         -1.3649      0.2469      0.1043
     2         N          0.0842      0.0948     -0.0299
     3         C          0.6949     -1.2177      0.1795
     4         C          0.9023      1.2264     -0.3649
     5         O          0.3874      2.3618     -0.5475
     6         H         -1.5926      0.9802      0.9065
     7         H         -1.8446     -0.7210      0.3655
     8         H         -1.7950      0.6052     -0.8548
     9         H          0.4794     -1.5697      1.2103
    10         H          1.7970     -1.1785      0.0445
    11         H          0.2773     -1.9443     -0.5490
    12         H          1.9745      1.1160     -0.4646

 General Reference for PM7:
 "Optimization of Parameters for Semiempirical Methods VI: More Modifications to the 
 NDDO Approximations and Re-optimization of Parameters", J. J. P. Stewart, J. Mol. Mod., 1:32, 19 (2013)
 https://link.springer.com/article/10.1007/s00894-012-1667-x

           Empirical Formula: C3 H7 N O  =    12 atoms



      MOLECULAR POINT GROUP   :   Cs  


      RHF CALCULATION, NO. OF DOUBLY OCCUPIED LEVELS = 15


          Geometry optimization using EF

          DIAGONAL MATRIX USED AS START HESSIAN

 CYCLE:     1 TIME:   0.008 TIME LEFT:  2.00D  GRAD.:   137.615 HEAT: -38.06793
 CYCLE:     2 TIME:   0.008 TIME LEFT:  2.00D  GRAD.:   185.241 HEAT: -38.10927
 CYCLE:     3 TIME:   0.008 TIME LEFT:  2.00D  GRAD.:    70.007 HEAT: -41.77995
 CYCLE:     4 TIME:   0.004 TIME LEFT:  2.00D  GRAD.:    28.672 HEAT: -42.63666
 CYCLE:     5 TIME:   0.004 TIME LEFT:  2.00D  GRAD.:    11.810 HEAT: -43.05923
 CYCLE:     6 TIME:   0.008 TIME LEFT:  2.00D  GRAD.:    19.097 HEAT: -43.10712
 CYCLE:     7 TIME:   0.004 TIME LEFT:  2.00D  GRAD.:    16.389 HEAT: -43.17409
 CYCLE:     8 TIME:   0.004 TIME LEFT:  2.00D  GRAD.:     7.992 HEAT: -43.23602
 CYCLE:     9 TIME:   0.004 TIME LEFT:  2.00D  GRAD.:     6.212 HEAT: -43.24894
 CYCLE:    10 TIME:   0.004 TIME LEFT:  2.00D  GRAD.:     6.751 HEAT: -43.25392
 CYCLE:    11 TIME:   0.000 TIME LEFT:  2.00D  GRAD.:     6.795 HEAT: -43.25530
 CYCLE:    12 TIME:   0.008 TIME LEFT:  2.00D  GRAD.:     2.676 HEAT: -43.27267
 CYCLE:    13 TIME:   0.004 TIME LEFT:  2.00D  GRAD.:     1.689 HEAT: -43.27685
 CYCLE:    14 TIME:   0.004 TIME LEFT:  2.00D  GRAD.:     2.118 HEAT: -43.27937
 CYCLE:    15 TIME:   0.000 TIME LEFT:  2.00D  GRAD.:     3.594 HEAT: -43.28152
 CYCLE:    16 TIME:   0.004 TIME LEFT:  2.00D  GRAD.:     1.781 HEAT: -43.28462
 CYCLE:    17 TIME:   0.004 TIME LEFT:  2.00D  GRAD.:     2.583 HEAT: -43.28355
 CYCLE:    18 TIME:   0.004 TIME LEFT:  2.00D  GRAD.:     0.195 HEAT: -43.28630

     GRADIENT =  0.19530 IS LESS THAN CUTOFF =  1.00000



 -------------------------------------------------------------------------------
 PM7 XYZ

 freesolv_0 - geometry optimisation


     GEOMETRY OPTIMISED USING EIGENVECTOR FOLLOWING (EF).     
     SCF FIELD WAS ACHIEVED                                   


                              PM7 CALCULATION
                                                       MOPAC v23.0.3 Linux
                                                       Fri Jul 25 15:21:15 2025




          FINAL HEAT OF FORMATION =        -43.28630 KCAL/MOL =    -181.10988 KJ/MOL


          COSMO AREA              =        114.70 SQUARE ANGSTROMS
          COSMO VOLUME            =        101.27 CUBIC ANGSTROMS

          GRADIENT NORM           =          0.19530          =       0.05638 PER ATOM
          IONIZATION POTENTIAL    =          9.252281 EV
          HOMO LUMO ENERGIES (EV) =         -9.252  1.453
          NO. OF FILLED LEVELS    =         15
          MOLECULAR WEIGHT        =         73.0944         POINT GROUP:  Cs  

          MOLECULAR DIMENSIONS (Angstroms)

            Atom       Atom       Distance
            H    12    H     7     4.23865
            O     5    H     9     3.82685
            H    11    H     6     2.49178


          SCF CALCULATIONS        =         26

          WALL-CLOCK TIME         =      0.098 SECONDS
          COMPUTATION TIME        =      1.900 SECONDS




   ATOM   CHEMICAL          X               Y               Z
  NUMBER   SYMBOL      (ANGSTROMS)     (ANGSTROMS)     (ANGSTROMS)

     1       C         -1.33365697  *   0.26420271  *   0.09706446  *
     2       N          0.11514614  *   0.12109920  *  -0.03807218  *
     3       C          0.69093266  *  -1.20046843  *   0.17605902  *
     4       C          0.87726988  *   1.21932497  *  -0.36043591  *
     5       O          0.34544073  *   2.30001747  *  -0.52994316  *
     6       H         -1.57279502  *   1.00809254  *   0.88157818  *
     7       H         -1.81478330  *  -0.68949578  *   0.35529323  *
     8       H         -1.77079467  *   0.63947430  *  -0.84846075  *
     9       H          0.47651210  *  -1.56139856  *   1.19900671  *
    10       H          1.78643165  *  -1.18768335  *   0.04746655  *
    11       H          0.27639875  *  -1.93116122  *  -0.54280762  *
    12       H          1.95933438  *   1.06303421  *  -0.45142787  *

                             CARTESIAN COORDINATES

   1    C       -1.333656974     0.264202713     0.097064455
   2    N        0.115146141     0.121099199    -0.038072182
   3    C        0.690932659    -1.200468429     0.176059022
   4    C        0.877269882     1.219324966    -0.360435911
   5    O        0.345440729     2.300017474    -0.529943164
   6    H       -1.572795016     1.008092536     0.881578177
   7    H       -1.814783304    -0.689495784     0.355293229
   8    H       -1.770794673     0.639474297    -0.848460745
   9    H        0.476512097    -1.561398561     1.199006711
  10    H        1.786431655    -1.187683349     0.047466547
  11    H        0.276398754    -1.931161218    -0.542807620
  12    H        1.959334384     1.063034209    -0.451427874


           Empirical Formula: C3 H7 N O  =    12 atoms



      MOLECULAR POINT GROUP   :   Cs  


                  EIGENVALUES  
 -36.63646 -29.85202 -25.48508 -24.63154 -20.84111 -17.56010 -16.27301 -16.23122
 -14.03616 -14.00202 -13.64528 -13.25751 -13.22983 -10.27125  -9.25228   1.45282
   1.74662   4.14217   4.46405   4.85078   4.93207   5.19494   5.47367   5.58896
   5.71437   6.04234   6.36816


              NET ATOMIC CHARGES AND DIPOLE CONTRIBUTIONS

  ATOM NO.   TYPE          CHARGE      No. of ELECS.   s-Pop       p-Pop       
    1          C          -0.218439        4.2184     1.05680     3.16164
    2          N          -0.480923        5.4809     1.55914     3.92179
    3          C          -0.225660        4.2257     1.05680     3.16886
    4          C           0.458451        3.5415     1.10724     2.43431
    5          O          -0.538571        6.5386     1.88062     4.65795
    6          H           0.154554        0.8454     0.84545
    7          H           0.137484        0.8625     0.86252
    8          H           0.154492        0.8455     0.84551
    9          H           0.144269        0.8557     0.85573
   10          H           0.144518        0.8555     0.85548
   11          H           0.144194        0.8558     0.85581
   12          H           0.125630        0.8744     0.87437
 DIPOLE           X         Y         Z       TOTAL
 POINT-CHG.     0.687    -4.355     0.847     4.490
 HYBRID        -0.175     0.046     0.009     0.181
 SUM            0.511    -4.310     0.857     4.424


          ATOMIC ORBITAL ELECTRON POPULATIONS

     Atom    s        px        py        pz   
    1  C   1.05680   0.83307   1.15308   1.17548
    2  N   1.55914   1.12143   1.12541   1.67495
    3  C   1.05680   1.11295   0.90046   1.15545
    4  C   1.10724   0.91831   0.77151   0.74449
    5  O   1.88062   1.77108   1.34469   1.54219
    6  H   0.84545
    7  H   0.86252
    8  H   0.84551
    9  H   0.85573
   10  H   0.85548
   11  H   0.85581
   12  H   0.87437

 **********************
 *                    *
 * JOB ENDED NORMALLY *
 *                    *
 **********************



 TOTAL JOB TIME:             0.10 SECONDS

 == MOPAC DONE ==
