 *******************************************************************************
 **                                                                           **
 **                              MOPAC v23.0.3                                **
 **                                                                           **
 *******************************************************************************
 **          Digital Object Identifier (DOI): 10.5281/zenodo.6511958          **
 **    Visit the DOI location for information on how to cite this program.    **
 *******************************************************************************

                              PM7 CALCULATION RESULTS

 *******************************************************************************
 *  CALCULATION DONE:                                Fri Jul 25 15:22:09 2025  *
 *  PM7        - The PM7 Hamiltonian to be used
 *  XYZ        - CARTESIAN COORDINATE SYSTEM TO BE USED
 *  T=         - A TIME OF 172800.0 SECONDS REQUESTED
 *  DUMP=N     - RESTART FILE WRITTEN EVERY 7200.0 SECONDS REQUESTED
 *******************************************************************************
PM7 XYZ

 freesolv_19 - geometry optimisation
   ATOM   CHEMICAL          X               Y               Z
  NUMBER   SYMBOL      (ANGSTROMS)     (ANGSTROMS)     (ANGSTROMS)

     1       C          2.81008100  *  -0.02085000  *   0.43046000  *
     2       O          1.59087500  *   0.69728800  *   0.27104600  *
     3       C          0.33756600  *   0.10128500  *   0.05571100  *
     4       C          0.18303400  *  -1.29804600  *  -0.02198600  *
     5       C         -1.07818400  *  -1.85909300  *  -0.23718700  *
     6       C         -2.19619000  *  -1.03639300  *  -0.37703100  *
     7       C         -2.05695800  *   0.35077800  *  -0.30215000  *
     8       C         -0.79589700  *   0.92737000  *  -0.08637300  *
     9       N         -0.67512700  *   2.35267900  *  -0.01285300  *
    10       H          3.02434400  *  -0.61687600  *  -0.48169500  *
    11       H          2.74824100  *  -0.68627000  *   1.31735100  *
    12       H          3.63798500  *   0.70089000  *   0.58536000  *
    13       H          1.03097000  *  -1.96083800  *   0.08257900  *
    14       H         -1.18865300  *  -2.93429200  *  -0.29561800  *
    15       H         -3.17206700  *  -1.47395900  *  -0.54367700  *
    16       H         -2.93255500  *   0.97823400  *  -0.41232200  *
    17       H          0.24782800  *   2.81386900  *   0.14658600  *
    18       H         -1.51529200  *   2.96422400  *  -0.11820300  *



          CARTESIAN COORDINATES 

    NO.       ATOM           X           Y           Z

     1         C          2.8101     -0.0209      0.4305
     2         O          1.5909      0.6973      0.2710
     3         C          0.3376      0.1013      0.0557
     4         C          0.1830     -1.2980     -0.0220
     5         C         -1.0782     -1.8591     -0.2372
     6         C         -2.1962     -1.0364     -0.3770
     7         C         -2.0570      0.3508     -0.3022
     8         C         -0.7959      0.9274     -0.0864
     9         N         -0.6751      2.3527     -0.0129
    10         H          3.0243     -0.6169     -0.4817
    11         H          2.7482     -0.6863      1.3174
    12         H          3.6380      0.7009      0.5854
    13         H          1.0310     -1.9608      0.0826
    14         H         -1.1887     -2.9343     -0.2956
    15         H         -3.1721     -1.4740     -0.5437
    16         H         -2.9326      0.9782     -0.4123
    17         H          0.2478      2.8139      0.1466
    18         H         -1.5153      2.9642     -0.1182

 General Reference for PM7:
 "Optimization of Parameters for Semiempirical Methods VI: More Modifications to the 
 NDDO Approximations and Re-optimization of Parameters", J. J. P. Stewart, J. Mol. Mod., 1:32, 19 (2013)
 https://link.springer.com/article/10.1007/s00894-012-1667-x

           Empirical Formula: C7 H9 N O  =    18 atoms



      MOLECULAR POINT GROUP   :   Cs  


      RHF CALCULATION, NO. OF DOUBLY OCCUPIED LEVELS = 24


          Geometry optimization using EF

          DIAGONAL MATRIX USED AS START HESSIAN

 CYCLE:     1 TIME:   0.016 TIME LEFT:  2.00D  GRAD.:   117.764 HEAT: -5.636027
 CYCLE:     2 TIME:   0.020 TIME LEFT:  2.00D  GRAD.:   104.385 HEAT: -8.891218
 CYCLE:     3 TIME:   0.008 TIME LEFT:  2.00D  GRAD.:    80.944 HEAT: -11.11026
 CYCLE:     4 TIME:   0.020 TIME LEFT:  2.00D  GRAD.:    42.089 HEAT: -12.75351
 CYCLE:     5 TIME:   0.012 TIME LEFT:  2.00D  GRAD.:    35.507 HEAT: -13.22171
 CYCLE:     6 TIME:   0.004 TIME LEFT:  2.00D  GRAD.:    26.370 HEAT: -13.72712
 CYCLE:     7 TIME:   0.008 TIME LEFT:  2.00D  GRAD.:    34.738 HEAT: -14.05555
 CYCLE:     8 TIME:   0.008 TIME LEFT:  2.00D  GRAD.:    42.125 HEAT: -14.25865
 CYCLE:     9 TIME:   0.012 TIME LEFT:  2.00D  GRAD.:    20.255 HEAT: -14.63526
 CYCLE:    10 TIME:   0.008 TIME LEFT:  2.00D  GRAD.:    19.350 HEAT: -14.70897
 CYCLE:    11 TIME:   0.008 TIME LEFT:  2.00D  GRAD.:    17.012 HEAT: -14.78793
 CYCLE:    12 TIME:   0.004 TIME LEFT:  2.00D  GRAD.:    15.559 HEAT: -14.85756
 CYCLE:    13 TIME:   0.008 TIME LEFT:  2.00D  GRAD.:    15.906 HEAT: -14.90820
 CYCLE:    14 TIME:   0.012 TIME LEFT:  2.00D  GRAD.:    12.020 HEAT: -14.97929
 CYCLE:    15 TIME:   0.016 TIME LEFT:  2.00D  GRAD.:    13.836 HEAT: -14.99947
 CYCLE:    16 TIME:   0.012 TIME LEFT:  2.00D  GRAD.:     9.790 HEAT: -15.04605
 CYCLE:    17 TIME:   0.020 TIME LEFT:  2.00D  GRAD.:    10.069 HEAT: -15.05829
 CYCLE:    18 TIME:   0.012 TIME LEFT:  2.00D  GRAD.:     3.427 HEAT: -15.09475
 CYCLE:    19 TIME:   0.012 TIME LEFT:  2.00D  GRAD.:     6.788 HEAT: -15.11636
 CYCLE:    20 TIME:   0.012 TIME LEFT:  2.00D  GRAD.:     5.517 HEAT: -15.15681
 CYCLE:    21 TIME:   0.031 TIME LEFT:  2.00D  GRAD.:     2.534 HEAT: -15.16541
 CYCLE:    22 TIME:   0.012 TIME LEFT:  2.00D  GRAD.:     1.922 HEAT: -15.17198
 CYCLE:    23 TIME:   0.012 TIME LEFT:  2.00D  GRAD.:     5.221 HEAT: -15.17354
 CYCLE:    24 TIME:   0.012 TIME LEFT:  2.00D  GRAD.:     3.955 HEAT: -15.18081
 CYCLE:    25 TIME:   0.027 TIME LEFT:  2.00D  GRAD.:     4.012 HEAT: -15.18115
 CYCLE:    26 TIME:   0.012 TIME LEFT:  2.00D  GRAD.:     3.957 HEAT: -15.18287
 CYCLE:    27 TIME:   0.020 TIME LEFT:  2.00D  GRAD.:     2.132 HEAT: -15.18636
 CYCLE:    28 TIME:   0.008 TIME LEFT:  2.00D  GRAD.:     4.043 HEAT: -15.18274
 CYCLE:    29 TIME:   0.012 TIME LEFT:  2.00D  GRAD.:     1.136 HEAT: -15.18912
 CYCLE:    30 TIME:   0.012 TIME LEFT:  2.00D  GRAD.:     4.809 HEAT: -15.18251
 CYCLE:    31 TIME:   0.012 TIME LEFT:  2.00D  GRAD.:     1.185 HEAT: -15.19158
 CYCLE:    32 TIME:   0.012 TIME LEFT:  2.00D  GRAD.:     1.527 HEAT: -15.19503
 CYCLE:    33 TIME:   0.012 TIME LEFT:  2.00D  GRAD.:     5.730 HEAT: -15.23176
 CYCLE:    34 TIME:   0.012 TIME LEFT:  2.00D  GRAD.:     6.078 HEAT: -15.29107
 CYCLE:    35 TIME:   0.039 TIME LEFT:  2.00D  GRAD.:     6.483 HEAT: -15.29523
 CYCLE:    36 TIME:   0.012 TIME LEFT:  2.00D  GRAD.:     3.319 HEAT: -15.31448
 CYCLE:    37 TIME:   0.012 TIME LEFT:  2.00D  GRAD.:     3.396 HEAT: -15.34102
 CYCLE:    38 TIME:   0.012 TIME LEFT:  2.00D  GRAD.:     4.859 HEAT: -15.39362
 CYCLE:    39 TIME:   0.012 TIME LEFT:  2.00D  GRAD.:     7.933 HEAT: -15.49247
 CYCLE:    40 TIME:   0.020 TIME LEFT:  2.00D  GRAD.:    10.445 HEAT: -15.58558
 CYCLE:    41 TIME:   0.012 TIME LEFT:  2.00D  GRAD.:     5.866 HEAT: -15.62470
 CYCLE:    42 TIME:   0.012 TIME LEFT:  2.00D  GRAD.:     6.159 HEAT: -15.63507
 CYCLE:    43 TIME:   0.012 TIME LEFT:  2.00D  GRAD.:     2.411 HEAT: -15.65398
 CYCLE:    44 TIME:   0.008 TIME LEFT:  2.00D  GRAD.:     2.372 HEAT: -15.65815
 CYCLE:    45 TIME:   0.012 TIME LEFT:  2.00D  GRAD.:     1.979 HEAT: -15.66386
 CYCLE:    46 TIME:   0.012 TIME LEFT:  2.00D  GRAD.:     1.758 HEAT: -15.67296
 CYCLE:    47 TIME:   0.012 TIME LEFT:  2.00D  GRAD.:     1.471 HEAT: -15.67906
 CYCLE:    48 TIME:   0.012 TIME LEFT:  2.00D  GRAD.:     1.128 HEAT: -15.68358
 CYCLE:    49 TIME:   0.012 TIME LEFT:  2.00D  GRAD.:     1.240 HEAT: -15.68766
 CYCLE:    50 TIME:   0.012 TIME LEFT:  2.00D  GRAD.:     0.850 HEAT: -15.69034

     GRADIENT =  0.84975 IS LESS THAN CUTOFF =  1.00000



 -------------------------------------------------------------------------------
 PM7 XYZ

 freesolv_19 - geometry optimisation


     GEOMETRY OPTIMISED USING EIGENVECTOR FOLLOWING (EF).     
     SCF FIELD WAS ACHIEVED                                   


                              PM7 CALCULATION
                                                       MOPAC v23.0.3 Linux
                                                       Fri Jul 25 15:22:10 2025




          FINAL HEAT OF FORMATION =        -15.69034 KCAL/MOL =     -65.64838 KJ/MOL


          COSMO AREA              =        160.83 SQUARE ANGSTROMS
          COSMO VOLUME            =        155.34 CUBIC ANGSTROMS

          GRADIENT NORM           =          0.84975          =       0.20029 PER ATOM
          IONIZATION POTENTIAL    =          8.123614 EV
          HOMO LUMO ENERGIES (EV) =         -8.124  0.327
          NO. OF FILLED LEVELS    =         24
          MOLECULAR WEIGHT        =        123.1542         POINT GROUP:  C1  

          MOLECULAR DIMENSIONS (Angstroms)

            Atom       Atom       Distance
            H    15    H    12     7.05512
            H    18    H    14     5.59271
            H    11    H    10     1.80812


          SCF CALCULATIONS        =         68

          WALL-CLOCK TIME         =      0.676 SECONDS
          COMPUTATION TIME        =      2.751 SECONDS




   ATOM   CHEMICAL          X               Y               Z
  NUMBER   SYMBOL      (ANGSTROMS)     (ANGSTROMS)     (ANGSTROMS)

     1       C          2.69481718  *  -0.02499551  *   0.42320130  *
     2       O          1.51814054  *   0.75389440  *   0.27378313  *
     3       C          0.35366728  *   0.07412604  *   0.05079687  *
     4       C          0.21709204  *  -1.30075406  *  -0.02549282  *
     5       C         -1.05267860  *  -1.85267228  *  -0.23387424  *
     6       C         -2.16162682  *  -1.02868286  *  -0.36069922  *
     7       C         -2.02835188  *   0.35990200  *  -0.28923447  *
     8       C         -0.77092187  *   0.93565644  *  -0.09061931  *
     9       N         -0.60126474  *   2.32425480  *  -0.11514447  *
    10       H          2.90369811  *  -0.59247670  *  -0.48892293  *
    11       H          2.62224930  *  -0.68073130  *   1.29602991  *
    12       H          3.46319005  *   0.74412909  *   0.58074152  *
    13       H          1.07354325  *  -1.95945680  *   0.07613249  *
    14       H         -1.16167566  *  -2.93201970  *  -0.29586179  *
    15       H         -3.14780168  *  -1.46156078  *  -0.51670456  *
    16       H         -2.90386731  *   0.99369907  *  -0.40153670  *
    17       H          0.27159238  *   2.67853409  *   0.22783994  *
    18       H         -1.39326772  *   2.88382504  *   0.12945176  *

                             CARTESIAN COORDINATES

   1    C        2.694817179    -0.024995513     0.423201298
   2    O        1.518140538     0.753894396     0.273783130
   3    C        0.353667279     0.074126038     0.050796870
   4    C        0.217092036    -1.300754060    -0.025492819
   5    C       -1.052678600    -1.852672277    -0.233874242
   6    C       -2.161626817    -1.028682858    -0.360699217
   7    C       -2.028351880     0.359901997    -0.289234473
   8    C       -0.770921868     0.935656443    -0.090619305
   9    N       -0.601264744     2.324254795    -0.115144473
  10    H        2.903698110    -0.592476699    -0.488922930
  11    H        2.622249298    -0.680731301     1.296029908
  12    H        3.463190050     0.744129085     0.580741522
  13    H        1.073543250    -1.959456797     0.076132490
  14    H       -1.161675663    -2.932019697    -0.295861791
  15    H       -3.147801682    -1.461560782    -0.516704556
  16    H       -2.903867306     0.993699066    -0.401536699
  17    H        0.271592379     2.678534089     0.227839940
  18    H       -1.393267716     2.883825035     0.129451761


           Empirical Formula: C7 H9 N O  =    18 atoms



      MOLECULAR POINT GROUP   :   C1  


                  EIGENVALUES  
 -36.33128 -30.53085 -29.85670 -25.61726 -25.46720 -24.32172 -21.02455 -20.71819
 -18.30175 -17.35600 -16.70163 -15.88250 -15.23433 -15.19668 -14.63187 -13.87354
 -13.76183 -13.02196 -12.07486 -11.96002 -11.63253 -11.33526  -9.35513  -8.12361
   0.32729   0.51913   1.77734   2.67049   3.26300   3.90342   4.56334   4.64850
   5.00702   5.10858   5.28860   5.33821   5.48235   5.86192   5.94858   6.12528
   6.27233   6.33213   6.39263   6.42689   7.05689


              NET ATOMIC CHARGES AND DIPOLE CONTRIBUTIONS

  ATOM NO.   TYPE          CHARGE      No. of ELECS.   s-Pop       p-Pop       
    1          C          -0.192661        4.1927     1.08597     3.10669
    2          O          -0.335852        6.3359     1.86537     4.47048
    3          C           0.128960        3.8710     1.07721     2.79383
    4          C          -0.224621        4.2246     1.07573     3.14889
    5          C          -0.170112        4.1701     1.07514     3.09497
    6          C          -0.132824        4.1328     1.07807     3.05475
    7          C          -0.240250        4.2403     1.07327     3.16698
    8          C           0.159509        3.8405     1.05407     2.78642
    9          N          -0.603735        5.6037     1.55962     4.04412
   10          H           0.134761        0.8652     0.86524
   11          H           0.132541        0.8675     0.86746
   12          H           0.150595        0.8494     0.84941
   13          H           0.158083        0.8419     0.84192
   14          H           0.150211        0.8498     0.84979
   15          H           0.149752        0.8502     0.85025
   16          H           0.159474        0.8405     0.84053
   17          H           0.293204        0.7068     0.70680
   18          H           0.282965        0.7170     0.71703
 DIPOLE           X         Y         Z       TOTAL
 POINT-CHG.     0.806    -0.492     0.836     1.261
 HYBRID         0.246     0.642     0.610     0.919
 SUM            1.053     0.149     1.446     1.795


          ATOMIC ORBITAL ELECTRON POPULATIONS

     Atom    s        px        py        pz   
    1  C   1.08597   0.88662   1.08079   1.13928
    2  O   1.86537   1.22047   1.36632   1.88369
    3  C   1.07721   0.83316   0.94481   1.01586
    4  C   1.07573   1.06308   1.00873   1.07708
    5  C   1.07514   0.97756   1.07704   1.04037
    6  C   1.07807   1.06134   0.98995   1.00346
    7  C   1.07327   1.03532   1.02825   1.10340
    8  C   1.05407   0.97157   0.83393   0.98092
    9  N   1.55962   1.20418   1.11827   1.72167
   10  H   0.86524
   11  H   0.86746
   12  H   0.84941
   13  H   0.84192
   14  H   0.84979
   15  H   0.85025
   16  H   0.84053
   17  H   0.70680
   18  H   0.71703

 **********************
 *                    *
 * JOB ENDED NORMALLY *
 *                    *
 **********************



 TOTAL JOB TIME:             0.68 SECONDS

 == MOPAC DONE ==
