 *******************************************************************************
 **                                                                           **
 **                              MOPAC v23.0.3                                **
 **                                                                           **
 *******************************************************************************
 **          Digital Object Identifier (DOI): 10.5281/zenodo.6511958          **
 **    Visit the DOI location for information on how to cite this program.    **
 *******************************************************************************

                              PM7 CALCULATION RESULTS

 *******************************************************************************
 *  CALCULATION DONE:                                Fri Jul 25 15:23:02 2025  *
 *  PM7        - The PM7 Hamiltonian to be used
 *  XYZ        - CARTESIAN COORDINATE SYSTEM TO BE USED
 *  T=         - A TIME OF 172800.0 SECONDS REQUESTED
 *  DUMP=N     - RESTART FILE WRITTEN EVERY 7200.0 SECONDS REQUESTED
 *******************************************************************************
PM7 XYZ

 freesolv_27 - geometry optimisation
   ATOM   CHEMICAL          X               Y               Z
  NUMBER   SYMBOL      (ANGSTROMS)     (ANGSTROMS)     (ANGSTROMS)

     1       C         -2.52088000  *   1.48397100  *  -1.44032900  *
     2       C         -2.75207800  *   0.04103200  *  -0.99218400  *
     3       C         -1.83011000  *  -0.37781300  *   0.16334600  *
     4       C         -0.36711100  *  -0.53544900  *  -0.27646500  *
     5       C          0.49858000  *  -1.06451600  *   0.87666700  *
     6       C          1.95862300  *  -1.28150400  *   0.45499700  *
     7       C          2.65773000  *   0.01833600  *   0.15409600  *
     8       O          2.85764200  *   0.34273800  *  -1.00650100  *
     9       C          3.08553900  *   0.93874000  *   1.25753000  *
    10       H         -2.59772400  *   2.17711000  *  -0.57580400  *
    11       H         -3.29217500  *   1.76563200  *  -2.18780700  *
    12       H         -1.52443300  *   1.59371600  *  -1.91587200  *
    13       H         -3.80596200  *  -0.05215400  *  -0.65107700  *
    14       H         -2.61764600  *  -0.64414300  *  -1.85726100  *
    15       H         -1.89969900  *   0.36467500  *   0.98857400  *
    16       H         -2.19456100  *  -1.35255400  *   0.55564400  *
    17       H         -0.31223100  *  -1.24398300  *  -1.13196900  *
    18       H          0.02745200  *   0.44915200  *  -0.60426500  *
    19       H          0.45582300  *  -0.35937000  *   1.73575000  *
    20       H          0.08911400  *  -2.03992500  *   1.21941200  *
    21       H          1.99803800  *  -1.95123100  *  -0.43225700  *
    22       H          2.49958400  *  -1.79699100  *   1.27759300  *
    23       H          2.56372900  *   1.91285500  *   1.15186000  *
    24       H          2.84091900  *   0.50824100  *   2.25144600  *
    25       H          4.18183600  *   1.10343700  *   1.20070700  *



          CARTESIAN COORDINATES 

    NO.       ATOM           X           Y           Z

     1         C         -2.5209      1.4840     -1.4403
     2         C         -2.7521      0.0410     -0.9922
     3         C         -1.8301     -0.3778      0.1633
     4         C         -0.3671     -0.5354     -0.2765
     5         C          0.4986     -1.0645      0.8767
     6         C          1.9586     -1.2815      0.4550
     7         C          2.6577      0.0183      0.1541
     8         O          2.8576      0.3427     -1.0065
     9         C          3.0855      0.9387      1.2575
    10         H         -2.5977      2.1771     -0.5758
    11         H         -3.2922      1.7656     -2.1878
    12         H         -1.5244      1.5937     -1.9159
    13         H         -3.8060     -0.0522     -0.6511
    14         H         -2.6176     -0.6441     -1.8573
    15         H         -1.8997      0.3647      0.9886
    16         H         -2.1946     -1.3526      0.5556
    17         H         -0.3122     -1.2440     -1.1320
    18         H          0.0275      0.4492     -0.6043
    19         H          0.4558     -0.3594      1.7358
    20         H          0.0891     -2.0399      1.2194
    21         H          1.9980     -1.9512     -0.4323
    22         H          2.4996     -1.7970      1.2776
    23         H          2.5637      1.9129      1.1519
    24         H          2.8409      0.5082      2.2514
    25         H          4.1818      1.1034      1.2007

 General Reference for PM7:
 "Optimization of Parameters for Semiempirical Methods VI: More Modifications to the 
 NDDO Approximations and Re-optimization of Parameters", J. J. P. Stewart, J. Mol. Mod., 1:32, 19 (2013)
 https://link.springer.com/article/10.1007/s00894-012-1667-x

           Empirical Formula: C8 H16 O  =    25 atoms



      MOLECULAR POINT GROUP   :   C1  


      RHF CALCULATION, NO. OF DOUBLY OCCUPIED LEVELS = 27


          Geometry optimization using EF

          DIAGONAL MATRIX USED AS START HESSIAN

 CYCLE:     1 TIME:   0.012 TIME LEFT:  2.00D  GRAD.:    55.401 HEAT: -77.45050
 CYCLE:     2 TIME:   0.031 TIME LEFT:  2.00D  GRAD.:    41.150 HEAT: -78.00772
 CYCLE:     3 TIME:   0.008 TIME LEFT:  2.00D  GRAD.:    16.391 HEAT: -78.56152
 CYCLE:     4 TIME:   0.008 TIME LEFT:  2.00D  GRAD.:    14.749 HEAT: -78.86516
 CYCLE:     5 TIME:   0.008 TIME LEFT:  2.00D  GRAD.:    16.784 HEAT: -78.99803
 CYCLE:     6 TIME:   0.012 TIME LEFT:  2.00D  GRAD.:     7.349 HEAT: -79.09828
 CYCLE:     7 TIME:   0.016 TIME LEFT:  2.00D  GRAD.:     8.232 HEAT: -79.11535
 CYCLE:     8 TIME:   0.008 TIME LEFT:  2.00D  GRAD.:     5.188 HEAT: -79.13980
 CYCLE:     9 TIME:   0.016 TIME LEFT:  2.00D  GRAD.:     5.695 HEAT: -79.15196
 CYCLE:    10 TIME:   0.008 TIME LEFT:  2.00D  GRAD.:     3.317 HEAT: -79.16905
 CYCLE:    11 TIME:   0.008 TIME LEFT:  2.00D  GRAD.:     7.475 HEAT: -79.18000
 CYCLE:    12 TIME:   0.008 TIME LEFT:  2.00D  GRAD.:     6.209 HEAT: -79.20572
 CYCLE:    13 TIME:   0.008 TIME LEFT:  2.00D  GRAD.:     9.916 HEAT: -79.20913
 CYCLE:    14 TIME:   0.008 TIME LEFT:  2.00D  GRAD.:     7.019 HEAT: -79.24358
 CYCLE:    15 TIME:   0.020 TIME LEFT:  2.00D  GRAD.:     5.529 HEAT: -79.25477
 CYCLE:    16 TIME:   0.008 TIME LEFT:  2.00D  GRAD.:     2.983 HEAT: -79.26564
 CYCLE:    17 TIME:   0.016 TIME LEFT:  2.00D  GRAD.:     4.357 HEAT: -79.26779
 CYCLE:    18 TIME:   0.008 TIME LEFT:  2.00D  GRAD.:     1.732 HEAT: -79.27554
 CYCLE:    19 TIME:   0.008 TIME LEFT:  2.00D  GRAD.:     7.699 HEAT: -79.27943
 CYCLE:    20 TIME:   0.008 TIME LEFT:  2.00D  GRAD.:     7.024 HEAT: -79.28115
 CYCLE:    21 TIME:   0.016 TIME LEFT:  2.00D  GRAD.:     5.035 HEAT: -79.29356
 CYCLE:    22 TIME:   0.008 TIME LEFT:  2.00D  GRAD.:     2.869 HEAT: -79.30311
 CYCLE:    23 TIME:   0.012 TIME LEFT:  2.00D  GRAD.:     3.455 HEAT: -79.30612
 CYCLE:    24 TIME:   0.012 TIME LEFT:  2.00D  GRAD.:     2.454 HEAT: -79.31291
 CYCLE:    25 TIME:   0.008 TIME LEFT:  2.00D  GRAD.:     4.578 HEAT: -79.31258
 CYCLE:    26 TIME:   0.008 TIME LEFT:  2.00D  GRAD.:     3.768 HEAT: -79.31917
 CYCLE:    27 TIME:   0.008 TIME LEFT:  2.00D  GRAD.:     5.840 HEAT: -79.31942
 CYCLE:    28 TIME:   0.004 TIME LEFT:  2.00D  GRAD.:     5.618 HEAT: -79.32120
 CYCLE:    29 TIME:   0.012 TIME LEFT:  2.00D  GRAD.:     5.943 HEAT: -79.32466
 CYCLE:    30 TIME:   0.012 TIME LEFT:  2.00D  GRAD.:     4.153 HEAT: -79.33061
 CYCLE:    31 TIME:   0.008 TIME LEFT:  2.00D  GRAD.:     3.174 HEAT: -79.33687
 CYCLE:    32 TIME:   0.008 TIME LEFT:  2.00D  GRAD.:     3.811 HEAT: -79.33601
 CYCLE:    33 TIME:   0.008 TIME LEFT:  2.00D  GRAD.:     3.884 HEAT: -79.34071
 CYCLE:    34 TIME:   0.008 TIME LEFT:  2.00D  GRAD.:     4.766 HEAT: -79.33793
 CYCLE:    35 TIME:   0.008 TIME LEFT:  2.00D  GRAD.:     4.460 HEAT: -79.34382
 CYCLE:    36 TIME:   0.016 TIME LEFT:  2.00D  GRAD.:     2.815 HEAT: -79.34787
 CYCLE:    37 TIME:   0.008 TIME LEFT:  2.00D  GRAD.:     2.933 HEAT: -79.35054
 CYCLE:    38 TIME:   0.008 TIME LEFT:  2.00D  GRAD.:     3.242 HEAT: -79.35176
 CYCLE:    39 TIME:   0.008 TIME LEFT:  2.00D  GRAD.:     4.762 HEAT: -79.35220
 CYCLE:    40 TIME:   0.008 TIME LEFT:  2.00D  GRAD.:     3.866 HEAT: -79.35571
 CYCLE:    41 TIME:   0.008 TIME LEFT:  2.00D  GRAD.:     4.797 HEAT: -79.35607
 CYCLE:    42 TIME:   0.008 TIME LEFT:  2.00D  GRAD.:     2.144 HEAT: -79.36531
 CYCLE:    43 TIME:   0.023 TIME LEFT:  2.00D  GRAD.:     5.496 HEAT: -79.35822
 CYCLE:    44 TIME:   0.008 TIME LEFT:  2.00D  GRAD.:     1.929 HEAT: -79.37062
 CYCLE:    45 TIME:   0.008 TIME LEFT:  2.00D  GRAD.:     4.306 HEAT: -79.36897
 CYCLE:    46 TIME:   0.008 TIME LEFT:  2.00D  GRAD.:     4.738 HEAT: -79.37167
 CYCLE:    47 TIME:   0.008 TIME LEFT:  2.00D  GRAD.:     4.136 HEAT: -79.37824
 CYCLE:    48 TIME:   0.008 TIME LEFT:  2.00D  GRAD.:     1.076 HEAT: -79.38983
 CYCLE:    49 TIME:   0.008 TIME LEFT:  2.00D  GRAD.:     3.585 HEAT: -79.39343
 CYCLE:    50 TIME:   0.008 TIME LEFT:  2.00D  GRAD.:     4.661 HEAT: -79.39962
 CYCLE:    51 TIME:   0.008 TIME LEFT:  2.00D  GRAD.:     2.255 HEAT: -79.40984
 CYCLE:    52 TIME:   0.008 TIME LEFT:  2.00D  GRAD.:     2.433 HEAT: -79.41531
 CYCLE:    53 TIME:   0.008 TIME LEFT:  2.00D  GRAD.:     1.832 HEAT: -79.41882
 CYCLE:    54 TIME:   0.008 TIME LEFT:  2.00D  GRAD.:     0.904 HEAT: -79.42164

     GRADIENT =  0.90408 IS LESS THAN CUTOFF =  1.00000



 -------------------------------------------------------------------------------
 PM7 XYZ

 freesolv_27 - geometry optimisation


     GEOMETRY OPTIMISED USING EIGENVECTOR FOLLOWING (EF).     
     SCF FIELD WAS ACHIEVED                                   


                              PM7 CALCULATION
                                                       MOPAC v23.0.3 Linux
                                                       Fri Jul 25 15:23:02 2025




          FINAL HEAT OF FORMATION =        -79.42164 KCAL/MOL =    -332.30014 KJ/MOL


          COSMO AREA              =        194.73 SQUARE ANGSTROMS
          COSMO VOLUME            =        193.81 CUBIC ANGSTROMS

          GRADIENT NORM           =          0.90408          =       0.18082 PER ATOM
          IONIZATION POTENTIAL    =         10.051695 EV
          HOMO LUMO ENERGIES (EV) =        -10.052  0.952
          NO. OF FILLED LEVELS    =         27
          MOLECULAR WEIGHT        =        128.2138         POINT GROUP:  C1  

          MOLECULAR DIMENSIONS (Angstroms)

            Atom       Atom       Distance
            H    25    H    13     8.15284
            H    20    H    11     5.11235
            H    15    H    21     3.43996


          SCF CALCULATIONS        =         70

          WALL-CLOCK TIME         =      0.547 SECONDS
          COMPUTATION TIME        =     10.961 SECONDS




   ATOM   CHEMICAL          X               Y               Z
  NUMBER   SYMBOL      (ANGSTROMS)     (ANGSTROMS)     (ANGSTROMS)

     1       C         -2.41774684  *   1.49350431  *  -1.41520689  *
     2       C         -2.71187394  *   0.06058582  *  -0.97124938  *
     3       C         -1.81043959  *  -0.37185938  *   0.19458000  *
     4       C         -0.37515128  *  -0.63035371  *  -0.27764212  *
     5       C          0.51354633  *  -1.08710579  *   0.88601836  *
     6       C          1.96414818  *  -1.28103407  *   0.42922768  *
     7       C          2.59449394  *   0.05306165  *   0.10465677  *
     8       O          2.78689395  *   0.39165265  *  -1.03658487  *
     9       C          2.98084351  *   0.93949307  *   1.25318533  *
    10       H         -2.59309933  *   2.20764576  *  -0.60356469  *
    11       H         -3.05143226  *   1.78693366  *  -2.25898303  *
    12       H         -1.37448409  *   1.60859884  *  -1.73362175  *
    13       H         -3.77381685  *  -0.02608393  *  -0.67122477  *
    14       H         -2.58485491  *  -0.63335330  *  -1.82385263  *
    15       H         -1.81979071  *   0.40282400  *   0.98322580  *
    16       H         -2.22250362  *  -1.28478004  *   0.66349718  *
    17       H         -0.37115583  *  -1.39007113  *  -1.08158120  *
    18       H          0.04342024  *   0.28553959  *  -0.74008110  *
    19       H          0.46343738  *  -0.35473379  *   1.71400667  *
    20       H          0.12614475  *  -2.03780873  *   1.30162618  *
    21       H          1.99536655  *  -1.93775951  *  -0.46616895  *
    22       H          2.54934171  *  -1.80551015  *   1.20701252  *
    23       H          2.50543434  *   1.92750485  *   1.15342268  *
    24       H          2.70941347  *   0.53159449  *   2.23196680  *
    25       H          4.06653397  *   1.11957911  *   1.24844710  *

                             CARTESIAN COORDINATES

   1    C       -2.417746841     1.493504307    -1.415206895
   2    C       -2.711873943     0.060585816    -0.971249376
   3    C       -1.810439591    -0.371859383     0.194580005
   4    C       -0.375151281    -0.630353707    -0.277642115
   5    C        0.513546331    -1.087105789     0.886018361
   6    C        1.964148179    -1.281034075     0.429227684
   7    C        2.594493936     0.053061654     0.104656772
   8    O        2.786893951     0.391652647    -1.036584874
   9    C        2.980843509     0.939493073     1.253185331
  10    H       -2.593099333     2.207645765    -0.603564687
  11    H       -3.051432257     1.786933659    -2.258983034
  12    H       -1.374484086     1.608598836    -1.733621752
  13    H       -3.773816847    -0.026083930    -0.671224773
  14    H       -2.584854913    -0.633353297    -1.823852629
  15    H       -1.819790711     0.402824001     0.983225802
  16    H       -2.222503618    -1.284780040     0.663497185
  17    H       -0.371155826    -1.390071129    -1.081581199
  18    H        0.043420235     0.285539586    -0.740081100
  19    H        0.463437376    -0.354733792     1.714006670
  20    H        0.126144754    -2.037808733     1.301626181
  21    H        1.995366555    -1.937759512    -0.466168946
  22    H        2.549341715    -1.805510146     1.207012524
  23    H        2.505434344     1.927504845     1.153422680
  24    H        2.709413467     0.531594488     2.231966805
  25    H        4.066533974     1.119579110     1.248447103


           Empirical Formula: C8 H16 O  =    25 atoms



      MOLECULAR POINT GROUP   :   C1  


                  EIGENVALUES  
 -31.09808 -29.41732 -27.95968 -26.19031 -24.61524 -22.47767 -20.79705 -19.62400
 -18.74929 -16.64902 -16.07683 -15.66712 -15.35265 -15.08991 -14.51398 -14.14751
 -13.79413 -13.29312 -13.07859 -12.73657 -12.47427 -12.35873 -12.00286 -11.52946
 -11.29186 -11.19011 -10.05169   0.95177   3.23798   3.71928   3.96932   4.11231
   4.43857   4.47167   4.77482   4.87159   5.21515   5.31492   5.35084   5.63522
   5.66011   5.74297   5.97102   6.10381   6.17787   6.19307   6.31774   6.52731
   6.60065   6.68823   6.76415   7.16037


              NET ATOMIC CHARGES AND DIPOLE CONTRIBUTIONS

  ATOM NO.   TYPE          CHARGE      No. of ELECS.   s-Pop       p-Pop       
    1          C          -0.436725        4.4367     1.05197     3.38476
    2          C          -0.249065        4.2491     1.05515     3.19391
    3          C          -0.272698        4.2727     1.05958     3.21312
    4          C          -0.273327        4.2733     1.06026     3.21306
    5          C          -0.254163        4.2542     1.05741     3.19675
    6          C          -0.389575        4.3896     1.07246     3.31712
    7          C           0.508293        3.4917     1.11956     2.37215
    8          O          -0.468589        6.4686     1.87697     4.59162
    9          C          -0.551935        4.5519     1.06490     3.48703
   10          H           0.140345        0.8597     0.85966
   11          H           0.140056        0.8599     0.85994
   12          H           0.147703        0.8523     0.85230
   13          H           0.130227        0.8698     0.86977
   14          H           0.136075        0.8639     0.86392
   15          H           0.135815        0.8642     0.86418
   16          H           0.130853        0.8691     0.86915
   17          H           0.142326        0.8577     0.85767
   18          H           0.150720        0.8493     0.84928
   19          H           0.137868        0.8621     0.86213
   20          H           0.140655        0.8593     0.85935
   21          H           0.173284        0.8267     0.82672
   22          H           0.157578        0.8424     0.84242
   23          H           0.181288        0.8187     0.81871
   24          H           0.163179        0.8368     0.83682
   25          H           0.179814        0.8202     0.82019
 DIPOLE           X         Y         Z       TOTAL
 POINT-CHG.    -0.795    -0.825     3.009     3.219
 HYBRID         0.151     0.133    -0.072     0.214
 SUM           -0.644    -0.692     2.937     3.085


          ATOMIC ORBITAL ELECTRON POPULATIONS

     Atom    s        px        py        pz   
    1  C   1.05197   1.17244   1.05446   1.15786
    2  C   1.05515   1.09305   1.02883   1.07204
    3  C   1.05958   1.00687   1.14302   1.06323
    4  C   1.06026   1.00004   1.16040   1.05262
    5  C   1.05741   0.97371   1.15275   1.07028
    6  C   1.07246   1.05497   1.08444   1.17771
    7  C   1.11956   0.68475   0.85057   0.83682
    8  O   1.87697   1.48641   1.76896   1.33625
    9  C   1.06490   1.19468   1.16639   1.12597
   10  H   0.85966
   11  H   0.85994
   12  H   0.85230
   13  H   0.86977
   14  H   0.86392
   15  H   0.86418
   16  H   0.86915
   17  H   0.85767
   18  H   0.84928
   19  H   0.86213
   20  H   0.85935
   21  H   0.82672
   22  H   0.84242
   23  H   0.81871
   24  H   0.83682
   25  H   0.82019

 **********************
 *                    *
 * JOB ENDED NORMALLY *
 *                    *
 **********************



 TOTAL JOB TIME:             0.55 SECONDS

 == MOPAC DONE ==
