 *******************************************************************************
 **                                                                           **
 **                              MOPAC v23.0.3                                **
 **                                                                           **
 *******************************************************************************
 **          Digital Object Identifier (DOI): 10.5281/zenodo.6511958          **
 **    Visit the DOI location for information on how to cite this program.    **
 *******************************************************************************

                              PM7 CALCULATION RESULTS

 *******************************************************************************
 *  CALCULATION DONE:                                Fri Jul 25 15:25:21 2025  *
 *  PM7        - The PM7 Hamiltonian to be used
 *  XYZ        - CARTESIAN COORDINATE SYSTEM TO BE USED
 *  T=         - A TIME OF 172800.0 SECONDS REQUESTED
 *  DUMP=N     - RESTART FILE WRITTEN EVERY 7200.0 SECONDS REQUESTED
 *******************************************************************************
PM7 XYZ

 freesolv_99 - geometry optimisation
   ATOM   CHEMICAL          X               Y               Z
  NUMBER   SYMBOL      (ANGSTROMS)     (ANGSTROMS)     (ANGSTROMS)

     1       C         -2.50037000  *  -0.82034400  *   0.43616000  *
     2       C         -1.20930300  *  -0.10238500  *   0.17564500  *
     3       C         -1.21615500  *   1.25083000  *  -0.19548900  *
     4       C         -0.01672300  *   1.90727300  *  -0.48327800  *
     5       C          1.19625800  *   1.21753200  *  -0.41037400  *
     6       C          1.21804500  *  -0.13588800  *  -0.04056900  *
     7       C          0.00950900  *  -0.79752200  *   0.23033500  *
     8       C          2.51468000  *  -0.88956400  *  -0.01055300  *
     9       H         -3.26269700  *  -0.12184900  *   0.84240700  *
    10       H         -2.35260400  *  -1.63501800  *   1.17678000  *
    11       H         -2.87779800  *  -1.25677000  *  -0.51206000  *
    12       H         -2.14942700  *   1.79582400  *  -0.26635500  *
    13       H         -0.02790600  *   2.95079000  *  -0.77053100  *
    14       H          2.11688700  *   1.73693700  *  -0.64637600  *
    15       H          0.01759200  *  -1.85111500  *   0.48435000  *
    16       H          2.47785700  *  -1.70170900  *   0.74648800  *
    17       H          3.35563000  *  -0.21320200  *   0.25291000  *
    18       H          2.70652500  *  -1.33382100  *  -1.00948700  *



          CARTESIAN COORDINATES 

    NO.       ATOM           X           Y           Z

     1         C         -2.5004     -0.8203      0.4362
     2         C         -1.2093     -0.1024      0.1756
     3         C         -1.2162      1.2508     -0.1955
     4         C         -0.0167      1.9073     -0.4833
     5         C          1.1963      1.2175     -0.4104
     6         C          1.2180     -0.1359     -0.0406
     7         C          0.0095     -0.7975      0.2303
     8         C          2.5147     -0.8896     -0.0106
     9         H         -3.2627     -0.1218      0.8424
    10         H         -2.3526     -1.6350      1.1768
    11         H         -2.8778     -1.2568     -0.5121
    12         H         -2.1494      1.7958     -0.2664
    13         H         -0.0279      2.9508     -0.7705
    14         H          2.1169      1.7369     -0.6464
    15         H          0.0176     -1.8511      0.4844
    16         H          2.4779     -1.7017      0.7465
    17         H          3.3556     -0.2132      0.2529
    18         H          2.7065     -1.3338     -1.0095

 General Reference for PM7:
 "Optimization of Parameters for Semiempirical Methods VI: More Modifications to the 
 NDDO Approximations and Re-optimization of Parameters", J. J. P. Stewart, J. Mol. Mod., 1:32, 19 (2013)
 https://link.springer.com/article/10.1007/s00894-012-1667-x

           Empirical Formula: C8 H10  =    18 atoms



      MOLECULAR POINT GROUP   :   Cs  


      RHF CALCULATION, NO. OF DOUBLY OCCUPIED LEVELS = 21


          Geometry optimization using EF

          DIAGONAL MATRIX USED AS START HESSIAN

 CYCLE:     1 TIME:   0.043 TIME LEFT:  2.00D  GRAD.:    35.710 HEAT:  4.381959
 CYCLE:     2 TIME:   0.016 TIME LEFT:  2.00D  GRAD.:    36.841 HEAT:  3.873804
 CYCLE:     3 TIME:   0.008 TIME LEFT:  2.00D  GRAD.:    28.078 HEAT:  3.644990
 CYCLE:     4 TIME:   0.012 TIME LEFT:  2.00D  GRAD.:    20.685 HEAT:  3.529138
 CYCLE:     5 TIME:   0.008 TIME LEFT:  2.00D  GRAD.:    10.861 HEAT:  3.441236
 CYCLE:     6 TIME:   0.012 TIME LEFT:  2.00D  GRAD.:     5.854 HEAT:  3.415123
 CYCLE:     7 TIME:   0.004 TIME LEFT:  2.00D  GRAD.:     6.410 HEAT:  3.411106
 CYCLE:     8 TIME:   0.004 TIME LEFT:  2.00D  GRAD.:     6.982 HEAT:  3.406522
 CYCLE:     9 TIME:   0.012 TIME LEFT:  2.00D  GRAD.:     3.166 HEAT:  3.396000
 CYCLE:    10 TIME:   0.008 TIME LEFT:  2.00D  GRAD.:     1.455 HEAT:  3.391962
 CYCLE:    11 TIME:   0.012 TIME LEFT:  2.00D  GRAD.:     2.708 HEAT:  3.387897
 CYCLE:    12 TIME:   0.016 TIME LEFT:  2.00D  GRAD.:     6.605 HEAT:  3.391052
 CYCLE:    13 TIME:   0.027 TIME LEFT:  2.00D  GRAD.:     4.360 HEAT:  3.386971
 CYCLE:    14 TIME:   0.008 TIME LEFT:  2.00D  GRAD.:     2.372 HEAT:  3.383515
 CYCLE:    15 TIME:   0.012 TIME LEFT:  2.00D  GRAD.:     2.776 HEAT:  3.382798
 CYCLE:    16 TIME:   0.008 TIME LEFT:  2.00D  GRAD.:     4.781 HEAT:  3.385730
 CYCLE:    17 TIME:   0.012 TIME LEFT:  2.00D  GRAD.:     4.184 HEAT:  3.384653
 CYCLE:    18 TIME:   0.012 TIME LEFT:  2.00D  GRAD.:     5.793 HEAT:  3.389597
 CYCLE:    19 TIME:   0.016 TIME LEFT:  2.00D  GRAD.:     4.538 HEAT:  3.385235
 CYCLE:    20 TIME:   0.008 TIME LEFT:  2.00D  GRAD.:     2.899 HEAT:  3.383318
 CYCLE:    21 TIME:   0.012 TIME LEFT:  2.00D  GRAD.:     4.645 HEAT:  3.385656
 CYCLE:    22 TIME:   0.008 TIME LEFT:  2.00D  GRAD.:     2.017 HEAT:  3.381461
 CYCLE:    23 TIME:   0.012 TIME LEFT:  2.00D  GRAD.:     4.816 HEAT:  3.387493
 CYCLE:    24 TIME:   0.012 TIME LEFT:  2.00D  GRAD.:     1.601 HEAT:  3.380432
 CYCLE:    25 TIME:   0.016 TIME LEFT:  2.00D  GRAD.:     2.632 HEAT:  3.382041
 CYCLE:    26 TIME:   0.012 TIME LEFT:  2.00D  GRAD.:     0.649 HEAT:  3.379511

     GRADIENT =  0.64918 IS LESS THAN CUTOFF =  1.00000



 -------------------------------------------------------------------------------
 PM7 XYZ

 freesolv_99 - geometry optimisation


     GEOMETRY OPTIMISED USING EIGENVECTOR FOLLOWING (EF).     
     SCF FIELD WAS ACHIEVED                                   


                              PM7 CALCULATION
                                                       MOPAC v23.0.3 Linux
                                                       Fri Jul 25 15:25:21 2025




          FINAL HEAT OF FORMATION =          3.37951 KCAL/MOL =      14.13987 KJ/MOL


          COSMO AREA              =        157.42 SQUARE ANGSTROMS
          COSMO VOLUME            =        151.32 CUBIC ANGSTROMS

          GRADIENT NORM           =          0.64918          =       0.15301 PER ATOM
          IONIZATION POTENTIAL    =          9.236712 EV
          HOMO LUMO ENERGIES (EV) =         -9.237  0.421
          NO. OF FILLED LEVELS    =         21
          MOLECULAR WEIGHT        =        106.1670         POINT GROUP:  Cs  

          MOLECULAR DIMENSIONS (Angstroms)

            Atom       Atom       Distance
            H    17    H     9     6.62641
            H    15    H    13     4.96065
            H    10    H    18     1.54338


          SCF CALCULATIONS        =         39

          WALL-CLOCK TIME         =      0.352 SECONDS
          COMPUTATION TIME        =      2.385 SECONDS




   ATOM   CHEMICAL          X               Y               Z
  NUMBER   SYMBOL      (ANGSTROMS)     (ANGSTROMS)     (ANGSTROMS)

     1       C         -2.48352133  *  -0.81302810  *   0.44008815  *
     2       C         -1.20246726  *  -0.10312748  *   0.15623754  *
     3       C         -1.21350393  *   1.24853923  *  -0.19700110  *
     4       C         -0.01627812  *   1.90212990  *  -0.47873890  *
     5       C          1.19319472  *   1.21534849  *  -0.41129272  *
     6       C          1.20784155  *  -0.13653630  *  -0.05850413  *
     7       C          0.00915268  *  -0.79303271  *   0.22568001  *
     8       C          2.49902757  *  -0.88185563  *  -0.00379370  *
     9       H         -3.25377808  *  -0.14032890  *   0.84068760  *
    10       H         -2.35730029  *  -1.62633058  *   1.16793740  *
    11       H         -2.88965450  *  -1.26095957  *  -0.48018114  *
    12       H         -2.15400124  *   1.78942457  *  -0.25239504  *
    13       H         -0.02629367  *   2.95527292  *  -0.75361621  *
    14       H          2.12363907  *   1.73047982  *  -0.63326319  *
    15       H          0.01905695  *  -1.84406286  *   0.50031105  *
    16       H          2.48121487  *  -1.69324335  *   0.73676352  *
    17       H          3.34589797  *  -0.23128856  *   0.25301535  *
    18       H          2.72389127  *  -1.33825787  *  -0.98032619  *

                             CARTESIAN COORDINATES

   1    C       -2.483521335    -0.813028095     0.440088148
   2    C       -1.202467265    -0.103127479     0.156237537
   3    C       -1.213503933     1.248539231    -0.197001096
   4    C       -0.016278122     1.902129899    -0.478738900
   5    C        1.193194724     1.215348494    -0.411292722
   6    C        1.207841552    -0.136536297    -0.058504130
   7    C        0.009152682    -0.793032708     0.225680012
   8    C        2.499027575    -0.881855631    -0.003793703
   9    H       -3.253778078    -0.140328897     0.840687596
  10    H       -2.357300291    -1.626330580     1.167937397
  11    H       -2.889654497    -1.260959573    -0.480181140
  12    H       -2.154001245     1.789424573    -0.252395043
  13    H       -0.026293667     2.955272921    -0.753616207
  14    H        2.123639072     1.730479824    -0.633263193
  15    H        0.019056951    -1.844062856     0.500311048
  16    H        2.481214874    -1.693243353     0.736763524
  17    H        3.345897974    -0.231288561     0.253015350
  18    H        2.723891266    -1.338257865    -0.980326190


           Empirical Formula: C8 H10  =    18 atoms



      MOLECULAR POINT GROUP   :   Cs  


                  EIGENVALUES  
 -30.51700 -27.63798 -26.59079 -23.99527 -23.28726 -20.66465 -19.48766 -16.99638
 -15.90879 -15.01423 -14.83399 -14.27681 -13.96180 -13.72958 -13.55028 -12.85056
 -12.37146 -11.78767 -11.64392  -9.52049  -9.23671   0.42130   0.46508   2.74048
   4.04183   4.13897   4.72487   5.07294   5.25292   5.35629   5.42095   5.60548
   5.61319   5.76215   5.77145   5.97816   6.12807   6.42923   6.44132   6.48217
   6.80361   6.84094


              NET ATOMIC CHARGES AND DIPOLE CONTRIBUTIONS

  ATOM NO.   TYPE          CHARGE      No. of ELECS.   s-Pop       p-Pop       
    1          C          -0.457930        4.4579     1.05007     3.40786
    2          C           0.066294        3.9337     1.06808     2.86563
    3          C          -0.214356        4.2144     1.08033     3.13403
    4          C          -0.112364        4.1124     1.08380     3.02856
    5          C          -0.214354        4.2144     1.08030     3.13405
    6          C           0.066302        3.9337     1.06809     2.86561
    7          C          -0.232367        4.2324     1.08191     3.15046
    8          C          -0.457917        4.4579     1.05008     3.40784
    9          H           0.156979        0.8430     0.84302
   10          H           0.156491        0.8435     0.84351
   11          H           0.162340        0.8377     0.83766
   12          H           0.152352        0.8476     0.84765
   13          H           0.146079        0.8539     0.85392
   14          H           0.152358        0.8476     0.84764
   15          H           0.154275        0.8457     0.84573
   16          H           0.156489        0.8435     0.84351
   17          H           0.156986        0.8430     0.84301
   18          H           0.162344        0.8377     0.83766
 DIPOLE           X         Y         Z       TOTAL
 POINT-CHG.    -0.006    -0.546     0.016     0.546
 HYBRID        -0.001    -0.109     0.008     0.110
 SUM           -0.007    -0.655     0.024     0.656


          ATOMIC ORBITAL ELECTRON POPULATIONS

     Atom    s        px        py        pz   
    1  C   1.05007   1.07983   1.15405   1.17399
    2  C   1.06808   0.95912   0.96847   0.93803
    3  C   1.08033   1.06017   1.01688   1.05698
    4  C   1.08380   0.98409   1.06680   0.97767
    5  C   1.08030   1.05905   1.01476   1.06024
    6  C   1.06809   0.95901   0.96802   0.93858
    7  C   1.08191   0.99097   1.08409   1.07541
    8  C   1.05008   1.07754   1.15070   1.17960
    9  H   0.84302
   10  H   0.84351
   11  H   0.83766
   12  H   0.84765
   13  H   0.85392
   14  H   0.84764
   15  H   0.84573
   16  H   0.84351
   17  H   0.84301
   18  H   0.83766

 **********************
 *                    *
 * JOB ENDED NORMALLY *
 *                    *
 **********************



 TOTAL JOB TIME:             0.36 SECONDS

 == MOPAC DONE ==
