 *******************************************************************************
 **                                                                           **
 **                              MOPAC v23.0.3                                **
 **                                                                           **
 *******************************************************************************
 **          Digital Object Identifier (DOI): 10.5281/zenodo.6511958          **
 **    Visit the DOI location for information on how to cite this program.    **
 *******************************************************************************

                              PM7 CALCULATION RESULTS

 *******************************************************************************
 *  CALCULATION DONE:                                Fri Jul 25 15:24:17 2025  *
 *  PM7        - The PM7 Hamiltonian to be used
 *  XYZ        - CARTESIAN COORDINATE SYSTEM TO BE USED
 *  T=         - A TIME OF 172800.0 SECONDS REQUESTED
 *  DUMP=N     - RESTART FILE WRITTEN EVERY 7200.0 SECONDS REQUESTED
 *******************************************************************************
PM7 XYZ

 freesolv_385 - geometry optimisation
   ATOM   CHEMICAL          X               Y               Z
  NUMBER   SYMBOL      (ANGSTROMS)     (ANGSTROMS)     (ANGSTROMS)

     1       C         -0.03316100  *   0.00600800  *  -0.00199800  *
     2       O          1.16465400  *  -0.21101400  *   0.07019700  *
     3       H         -0.73311600  *  -0.82159400  *  -0.03509500  *
     4       H         -0.39837700  *   1.02660000  *  -0.03310400  *



          CARTESIAN COORDINATES 

    NO.       ATOM           X           Y           Z

     1         C         -0.0332      0.0060     -0.0020
     2         O          1.1647     -0.2110      0.0702
     3         H         -0.7331     -0.8216     -0.0351
     4         H         -0.3984      1.0266     -0.0331

 General Reference for PM7:
 "Optimization of Parameters for Semiempirical Methods VI: More Modifications to the 
 NDDO Approximations and Re-optimization of Parameters", J. J. P. Stewart, J. Mol. Mod., 1:32, 19 (2013)
 https://link.springer.com/article/10.1007/s00894-012-1667-x

           Empirical Formula: C H2 O  =     4 atoms



      MOLECULAR POINT GROUP   :   C2v 


      RHF CALCULATION, NO. OF DOUBLY OCCUPIED LEVELS = 6


          Geometry optimization using EF

          DIAGONAL MATRIX USED AS START HESSIAN

 CYCLE:     1 TIME:   0.000 TIME LEFT:  2.00D  GRAD.:    37.914 HEAT: -25.31232
 CYCLE:     2 TIME:   0.004 TIME LEFT:  2.00D  GRAD.:    10.184 HEAT: -25.49585
 CYCLE:     3 TIME:   0.000 TIME LEFT:  2.00D  GRAD.:     2.858 HEAT: -25.53151
 CYCLE:     4 TIME:   0.000 TIME LEFT:  2.00D  GRAD.:     4.438 HEAT: -25.53657
 CYCLE:     5 TIME:   0.000 TIME LEFT:  2.00D  GRAD.:     0.386 HEAT: -25.54333

     GRADIENT =  0.38553 IS LESS THAN CUTOFF =  1.00000



 -------------------------------------------------------------------------------
 PM7 XYZ

 freesolv_385 - geometry optimisation


     GEOMETRY OPTIMISED USING EIGENVECTOR FOLLOWING (EF).     
     SCF FIELD WAS ACHIEVED                                   


                              PM7 CALCULATION
                                                       MOPAC v23.0.3 Linux
                                                       Fri Jul 25 15:24:17 2025




          FINAL HEAT OF FORMATION =        -25.54333 KCAL/MOL =    -106.87331 KJ/MOL


          COSMO AREA              =         60.66 SQUARE ANGSTROMS
          COSMO VOLUME            =         42.57 CUBIC ANGSTROMS

          GRADIENT NORM           =          0.38553          =       0.19276 PER ATOM
          IONIZATION POTENTIAL    =         10.352440 EV
          HOMO LUMO ENERGIES (EV) =        -10.352  0.403
          NO. OF FILLED LEVELS    =          6
          MOLECULAR WEIGHT        =         30.0262         POINT GROUP:  C2v 

          MOLECULAR DIMENSIONS (Angstroms)

            Atom       Atom       Distance
            H     4    O     2     2.00271
            H     3    O     2     1.65221
            C     1    H     4     0.00001


          SCF CALCULATIONS        =         10

          WALL-CLOCK TIME         =      0.012 SECONDS
          COMPUTATION TIME        =      0.271 SECONDS




   ATOM   CHEMICAL          X               Y               Z
  NUMBER   SYMBOL      (ANGSTROMS)     (ANGSTROMS)     (ANGSTROMS)

     1       C         -0.02273844  *   0.00416243  *  -0.00137522  *
     2       O          1.16190393  *  -0.21054057  *   0.07003283  *
     3       H         -0.74464263  *  -0.81418249  *  -0.03583450  *
     4       H         -0.41187301  *   1.02367329  *  -0.03386032  *

                             CARTESIAN COORDINATES

   1    C       -0.022738440     0.004162432    -0.001375218
   2    O        1.161903933    -0.210540569     0.070032834
   3    H       -0.744642635    -0.814182495    -0.035834504
   4    H       -0.411873009     1.023673292    -0.033860318


           Empirical Formula: C H2 O  =     4 atoms



      MOLECULAR POINT GROUP   :   C2v 


                  EIGENVALUES  
 -31.15152 -23.09304 -16.82412 -14.94148 -14.14091 -10.35244   0.40345   4.45603
   4.85156   5.06241


              NET ATOMIC CHARGES AND DIPOLE CONTRIBUTIONS

  ATOM NO.   TYPE          CHARGE      No. of ELECS.   s-Pop       p-Pop       
    1          C           0.202193        3.7978     1.15159     2.64622
    2          O          -0.402458        6.4025     1.87889     4.52357
    3          H           0.100129        0.8999     0.89987
    4          H           0.100137        0.8999     0.89986
 DIPOLE           X         Y         Z       TOTAL
 POINT-CHG.    -2.824     0.512    -0.170     2.875
 HYBRID         0.205    -0.037     0.012     0.209
 SUM           -2.619     0.475    -0.158     2.667


          ATOMIC ORBITAL ELECTRON POPULATIONS

     Atom    s        px        py        pz   
    1  C   1.15159   0.89656   1.06264   0.68702
    2  O   1.87889   1.28499   1.92505   1.31352
    3  H   0.89987
    4  H   0.89986

 **********************
 *                    *
 * JOB ENDED NORMALLY *
 *                    *
 **********************



 TOTAL JOB TIME:             0.01 SECONDS

 == MOPAC DONE ==
