 *******************************************************************************
 **                                                                           **
 **                              MOPAC v23.0.3                                **
 **                                                                           **
 *******************************************************************************
 **          Digital Object Identifier (DOI): 10.5281/zenodo.6511958          **
 **    Visit the DOI location for information on how to cite this program.    **
 *******************************************************************************

                              PM7 CALCULATION RESULTS

 *******************************************************************************
 *  CALCULATION DONE:                                Fri Jul 25 15:21:44 2025  *
 *  PM7        - The PM7 Hamiltonian to be used
 *  XYZ        - CARTESIAN COORDINATE SYSTEM TO BE USED
 *  T=         - A TIME OF 172800.0 SECONDS REQUESTED
 *  DUMP=N     - RESTART FILE WRITTEN EVERY 7200.0 SECONDS REQUESTED
 *******************************************************************************
PM7 XYZ

 freesolv_115 - geometry optimisation
   ATOM   CHEMICAL          X               Y               Z
  NUMBER   SYMBOL      (ANGSTROMS)     (ANGSTROMS)     (ANGSTROMS)

     1       C          2.30757900  *   0.03293100  *   0.92145800  *
     2       C          1.70562600  *   0.03951400  *  -0.47941000  *
     3       C          0.20739500  *   0.09598700  *  -0.41311200  *
     4       C         -0.54944600  *  -1.07881200  *  -0.28864400  *
     5       C         -1.94011600  *  -0.99064600  *  -0.19758200  *
     6       C         -2.56026200  *   0.25973800  *  -0.22278000  *
     7       C         -1.77512500  *   1.40923800  *  -0.33605000  *
     8       N         -0.42196600  *   1.30410100  *  -0.42369200  *
     9       H          3.41513900  *   0.00011300  *   0.84998000  *
    10       H          2.01346700  *   0.95231000  *   1.47174000  *
    11       H          1.96125700  *  -0.85914000  *   1.48604600  *
    12       H          2.03051900  *  -0.87237700  *  -1.02621800  *
    13       H          2.08768300  *   0.92175800  *  -1.03727300  *
    14       H         -0.06763900  *  -2.04830400  *  -0.26090500  *
    15       H         -2.53568900  *  -1.88957700  *  -0.10456600  *
    16       H         -3.63739600  *   0.33775800  *  -0.15155900  *
    17       H         -2.24102700  *   2.38541000  *  -0.35146500  *



          CARTESIAN COORDINATES 

    NO.       ATOM           X           Y           Z

     1         C          2.3076      0.0329      0.9215
     2         C          1.7056      0.0395     -0.4794
     3         C          0.2074      0.0960     -0.4131
     4         C         -0.5494     -1.0788     -0.2886
     5         C         -1.9401     -0.9906     -0.1976
     6         C         -2.5603      0.2597     -0.2228
     7         C         -1.7751      1.4092     -0.3361
     8         N         -0.4220      1.3041     -0.4237
     9         H          3.4151      0.0001      0.8500
    10         H          2.0135      0.9523      1.4717
    11         H          1.9613     -0.8591      1.4860
    12         H          2.0305     -0.8724     -1.0262
    13         H          2.0877      0.9218     -1.0373
    14         H         -0.0676     -2.0483     -0.2609
    15         H         -2.5357     -1.8896     -0.1046
    16         H         -3.6374      0.3378     -0.1516
    17         H         -2.2410      2.3854     -0.3515

 General Reference for PM7:
 "Optimization of Parameters for Semiempirical Methods VI: More Modifications to the 
 NDDO Approximations and Re-optimization of Parameters", J. J. P. Stewart, J. Mol. Mod., 1:32, 19 (2013)
 https://link.springer.com/article/10.1007/s00894-012-1667-x

           Empirical Formula: C7 H9 N  =    17 atoms



      MOLECULAR POINT GROUP   :   C1  


      RHF CALCULATION, NO. OF DOUBLY OCCUPIED LEVELS = 21


          Geometry optimization using EF

          DIAGONAL MATRIX USED AS START HESSIAN

 CYCLE:     1 TIME:   0.008 TIME LEFT:  2.00D  GRAD.:    55.946 HEAT:  19.27951
 CYCLE:     2 TIME:   0.020 TIME LEFT:  2.00D  GRAD.:    44.083 HEAT:  18.35049
 CYCLE:     3 TIME:   0.008 TIME LEFT:  2.00D  GRAD.:    44.070 HEAT:  17.98171
 CYCLE:     4 TIME:   0.008 TIME LEFT:  2.00D  GRAD.:    22.816 HEAT:  17.58167
 CYCLE:     5 TIME:   0.012 TIME LEFT:  2.00D  GRAD.:    13.424 HEAT:  17.44040
 CYCLE:     6 TIME:   0.004 TIME LEFT:  2.00D  GRAD.:    12.478 HEAT:  17.35869
 CYCLE:     7 TIME:   0.012 TIME LEFT:  2.00D  GRAD.:    11.948 HEAT:  17.31001
 CYCLE:     8 TIME:   0.004 TIME LEFT:  2.00D  GRAD.:    11.611 HEAT:  17.28680
 CYCLE:     9 TIME:   0.004 TIME LEFT:  2.00D  GRAD.:    10.199 HEAT:  17.25096
 CYCLE:    10 TIME:   0.008 TIME LEFT:  2.00D  GRAD.:     8.459 HEAT:  17.23552
 CYCLE:    11 TIME:   0.004 TIME LEFT:  2.00D  GRAD.:     5.916 HEAT:  17.21545
 CYCLE:    12 TIME:   0.004 TIME LEFT:  2.00D  GRAD.:     8.157 HEAT:  17.21130
 CYCLE:    13 TIME:   0.008 TIME LEFT:  2.00D  GRAD.:     6.275 HEAT:  17.18760
 CYCLE:    14 TIME:   0.012 TIME LEFT:  2.00D  GRAD.:     2.608 HEAT:  17.17732
 CYCLE:    15 TIME:   0.004 TIME LEFT:  2.00D  GRAD.:     4.743 HEAT:  17.17445
 CYCLE:    16 TIME:   0.004 TIME LEFT:  2.00D  GRAD.:     3.941 HEAT:  17.16012
 CYCLE:    17 TIME:   0.016 TIME LEFT:  2.00D  GRAD.:     3.046 HEAT:  17.15638
 CYCLE:    18 TIME:   0.012 TIME LEFT:  2.00D  GRAD.:     8.190 HEAT:  17.16443
 CYCLE:    19 TIME:   0.008 TIME LEFT:  2.00D  GRAD.:     5.998 HEAT:  17.16292
 CYCLE:    20 TIME:   0.023 TIME LEFT:  2.00D  GRAD.:     3.136 HEAT:  17.15354
 CYCLE:    21 TIME:   0.020 TIME LEFT:  2.00D  GRAD.:     2.104 HEAT:  17.15006
 CYCLE:    22 TIME:   0.008 TIME LEFT:  2.00D  GRAD.:     1.847 HEAT:  17.14666
 CYCLE:    23 TIME:   0.008 TIME LEFT:  2.00D  GRAD.:     2.045 HEAT:  17.14587
 CYCLE:    24 TIME:   0.012 TIME LEFT:  2.00D  GRAD.:     3.236 HEAT:  17.14756
 CYCLE:    25 TIME:   0.008 TIME LEFT:  2.00D  GRAD.:     1.689 HEAT:  17.14426
 CYCLE:    26 TIME:   0.012 TIME LEFT:  2.00D  GRAD.:     2.246 HEAT:  17.14468
 CYCLE:    27 TIME:   0.008 TIME LEFT:  2.00D  GRAD.:     1.772 HEAT:  17.14276
 CYCLE:    28 TIME:   0.008 TIME LEFT:  2.00D  GRAD.:     3.791 HEAT:  17.14639
 CYCLE:    29 TIME:   0.012 TIME LEFT:  2.00D  GRAD.:     0.745 HEAT:  17.14005

     GRADIENT =  0.74543 IS LESS THAN CUTOFF =  1.00000



 -------------------------------------------------------------------------------
 PM7 XYZ

 freesolv_115 - geometry optimisation


     GEOMETRY OPTIMISED USING EIGENVECTOR FOLLOWING (EF).     
     SCF FIELD WAS ACHIEVED                                   


                              PM7 CALCULATION
                                                       MOPAC v23.0.3 Linux
                                                       Fri Jul 25 15:21:44 2025




          FINAL HEAT OF FORMATION =         17.14005 KCAL/MOL =      71.71397 KJ/MOL


          COSMO AREA              =        153.18 SQUARE ANGSTROMS
          COSMO VOLUME            =        146.72 CUBIC ANGSTROMS

          GRADIENT NORM           =          0.74543          =       0.18079 PER ATOM
          IONIZATION POTENTIAL    =          9.875500 EV
          HOMO LUMO ENERGIES (EV) =         -9.876 -0.093
          NO. OF FILLED LEVELS    =         21
          MOLECULAR WEIGHT        =        107.1548         POINT GROUP:  C1  

          MOLECULAR DIMENSIONS (Angstroms)

            Atom       Atom       Distance
            H    16    H     9     7.09910
            H    17    H    14     4.34919
            H    11    H    13     2.58772


          SCF CALCULATIONS        =         44

          WALL-CLOCK TIME         =      0.297 SECONDS
          COMPUTATION TIME        =      2.385 SECONDS




   ATOM   CHEMICAL          X               Y               Z
  NUMBER   SYMBOL      (ANGSTROMS)     (ANGSTROMS)     (ANGSTROMS)

     1       C          2.28986792  *   0.03318907  *   0.91605791  *
     2       C          1.68713764  *   0.06299234  *  -0.48949988  *
     3       C          0.18790180  *   0.09118154  *  -0.39903799  *
     4       C         -0.56032737  *  -1.09223096  *  -0.27952101  *
     5       C         -1.94593053  *  -1.00104025  *  -0.19113104  *
     6       C         -2.55309259  *   0.25371392  *  -0.21919252  *
     7       C         -1.73628303  *   1.38466374  *  -0.33895521  *
     8       N         -0.39598615  *   1.30745266  *  -0.43157791  *
     9       H          3.38423022  *   0.00353650  *   0.87622161  *
    10       H          2.00425201  *   0.92895862  *   1.48380092  *
    11       H          1.95008760  *  -0.83901941  *   1.48481736  *
    12       H          2.02560775  *  -0.81158486  *  -1.07833208  *
    13       H          2.05443684  *   0.95999509  *  -1.03696828  *
    14       H         -0.06147078  *  -2.05564979  *  -0.25611075  *
    15       H         -2.55197179  *  -1.90236206  *  -0.10219622  *
    16       H         -3.63120731  *   0.35588223  *  -0.15170985  *
    17       H         -2.15344359  *   2.39818205  *  -0.36557494  *

                             CARTESIAN COORDINATES

   1    C        2.289867918     0.033189066     0.916057915
   2    C        1.687137639     0.062992339    -0.489499885
   3    C        0.187901799     0.091181540    -0.399037990
   4    C       -0.560327375    -1.092230961    -0.279521009
   5    C       -1.945930532    -1.001040248    -0.191131038
   6    C       -2.553092592     0.253713916    -0.219192523
   7    C       -1.736283029     1.384663744    -0.338955208
   8    N       -0.395986149     1.307452662    -0.431577908
   9    H        3.384230218     0.003536503     0.876221607
  10    H        2.004252013     0.928958619     1.483800919
  11    H        1.950087598    -0.839019407     1.484817356
  12    H        2.025607746    -0.811584860    -1.078332082
  13    H        2.054436840     0.959995086    -1.036968282
  14    H       -0.061470777    -2.055649793    -0.256110749
  15    H       -2.551971789    -1.902362060    -0.102196221
  16    H       -3.631207310     0.355882227    -0.151709849
  17    H       -2.153443587     2.398182054    -0.365574936


           Empirical Formula: C7 H9 N  =    17 atoms



      MOLECULAR POINT GROUP   :   C1  


                  EIGENVALUES  
 -35.75316 -28.44614 -28.33557 -25.45973 -22.53819 -22.13458 -20.36967 -17.58828
 -16.78462 -16.01043 -15.01278 -14.80369 -14.42968 -13.84539 -13.33964 -12.98665
 -12.16129 -11.94871 -10.78918 -10.22696  -9.87550  -0.09256  -0.00756   2.38798
   3.49762   3.79098   4.24858   4.29057   4.44706   4.65379   5.23061   5.37654
   5.58621   5.63304   5.75356   5.84592   5.92120   5.94015   6.26738   6.47098
   6.91081


              NET ATOMIC CHARGES AND DIPOLE CONTRIBUTIONS

  ATOM NO.   TYPE          CHARGE      No. of ELECS.   s-Pop       p-Pop       
    1          C          -0.425395        4.4254     1.05126     3.37413
    2          C          -0.270612        4.2706     1.05528     3.21533
    3          C           0.211911        3.7881     1.08316     2.70493
    4          C          -0.270849        4.2708     1.08702     3.18383
    5          C          -0.067038        4.0670     1.08821     2.97883
    6          C          -0.262849        4.2628     1.08539     3.17746
    7          C           0.067007        3.9330     1.09752     2.83548
    8          N          -0.403296        5.4033     1.74336     3.65994
    9          H           0.146993        0.8530     0.85301
   10          H           0.156513        0.8435     0.84349
   11          H           0.144461        0.8555     0.85554
   12          H           0.148483        0.8515     0.85152
   13          H           0.169798        0.8302     0.83020
   14          H           0.166360        0.8336     0.83364
   15          H           0.154335        0.8457     0.84566
   16          H           0.165606        0.8344     0.83439
   17          H           0.168573        0.8314     0.83143
 DIPOLE           X         Y         Z       TOTAL
 POINT-CHG.    -0.097    -1.226     0.240     1.253
 HYBRID        -0.437    -0.600     0.091     0.748
 SUM           -0.534    -1.827     0.331     1.932


          ATOMIC ORBITAL ELECTRON POPULATIONS

     Atom    s        px        py        pz   
    1  C   1.05126   1.14671   1.18352   1.04390
    2  C   1.05528   0.98276   1.17993   1.05264
    3  C   1.08316   0.96309   0.87549   0.86635
    4  C   1.08702   1.01948   1.08020   1.08415
    5  C   1.08821   1.00891   1.04714   0.92278
    6  C   1.08539   1.09423   1.00281   1.08042
    7  C   1.09752   0.88935   1.04720   0.89893
    8  N   1.74336   1.17460   1.31509   1.17025
    9  H   0.85301
   10  H   0.84349
   11  H   0.85554
   12  H   0.85152
   13  H   0.83020
   14  H   0.83364
   15  H   0.84566
   16  H   0.83439
   17  H   0.83143

 **********************
 *                    *
 * JOB ENDED NORMALLY *
 *                    *
 **********************



 TOTAL JOB TIME:             0.30 SECONDS

 == MOPAC DONE ==
