 *******************************************************************************
 **                                                                           **
 **                              MOPAC v23.0.3                                **
 **                                                                           **
 *******************************************************************************
 **          Digital Object Identifier (DOI): 10.5281/zenodo.6511958          **
 **    Visit the DOI location for information on how to cite this program.    **
 *******************************************************************************

                              PM7 CALCULATION RESULTS

 *******************************************************************************
 *  CALCULATION DONE:                                Fri Jul 25 15:24:12 2025  *
 *  PM7        - The PM7 Hamiltonian to be used
 *  XYZ        - CARTESIAN COORDINATE SYSTEM TO BE USED
 *  T=         - A TIME OF 172800.0 SECONDS REQUESTED
 *  DUMP=N     - RESTART FILE WRITTEN EVERY 7200.0 SECONDS REQUESTED
 *******************************************************************************
PM7 XYZ

 freesolv_374 - geometry optimisation
   ATOM   CHEMICAL          X               Y               Z
  NUMBER   SYMBOL      (ANGSTROMS)     (ANGSTROMS)     (ANGSTROMS)

     1       C         -3.23267100  *   0.03535300  *  -0.10612000  *
     2       C         -1.74269600  *  -0.13075000  *  -0.39110000  *
     3       C         -0.92890100  *  -0.14212700  *   0.91121100  *
     4       C          0.56049000  *  -0.43773800  *   0.67478700  *
     5       C          1.29460900  *   0.72928200  *   0.00166500  *
     6       C          2.76198900  *   0.43866100  *  -0.09304800  *
     7       O          3.54526300  *   0.86993200  *   0.79459400  *
     8       N          3.27224700  *  -0.36064200  *  -1.15996100  *
     9       H         -3.41859100  *   0.99059800  *   0.42968800  *
    10       H         -3.79506800  *   0.04977000  *  -1.06348600  *
    11       H         -3.60484500  *  -0.81015600  *   0.51085700  *
    12       H         -1.41483600  *   0.70929100  *  -1.03893400  *
    13       H         -1.58735600  *  -1.08411600  *  -0.94151700  *
    14       H         -1.33308800  *  -0.93414800  *   1.57937700  *
    15       H         -1.04133300  *   0.83140800  *   1.43720500  *
    16       H          1.03222700  *  -0.63453400  *   1.66297600  *
    17       H          0.66879100  *  -1.35915400  *   0.06097700  *
    18       H          0.89808000  *   0.89572200  *  -1.02172800  *
    19       H          1.14060000  *   1.66171500  *   0.58773700  *
    20       H          2.63234800  *  -0.74450800  *  -1.89036500  *
    21       H          4.29274300  *  -0.57385900  *  -1.21746400  *



          CARTESIAN COORDINATES 

    NO.       ATOM           X           Y           Z

     1         C         -3.2327      0.0354     -0.1061
     2         C         -1.7427     -0.1308     -0.3911
     3         C         -0.9289     -0.1421      0.9112
     4         C          0.5605     -0.4377      0.6748
     5         C          1.2946      0.7293      0.0017
     6         C          2.7620      0.4387     -0.0930
     7         O          3.5453      0.8699      0.7946
     8         N          3.2722     -0.3606     -1.1600
     9         H         -3.4186      0.9906      0.4297
    10         H         -3.7951      0.0498     -1.0635
    11         H         -3.6048     -0.8102      0.5109
    12         H         -1.4148      0.7093     -1.0389
    13         H         -1.5874     -1.0841     -0.9415
    14         H         -1.3331     -0.9341      1.5794
    15         H         -1.0413      0.8314      1.4372
    16         H          1.0322     -0.6345      1.6630
    17         H          0.6688     -1.3592      0.0610
    18         H          0.8981      0.8957     -1.0217
    19         H          1.1406      1.6617      0.5877
    20         H          2.6323     -0.7445     -1.8904
    21         H          4.2927     -0.5739     -1.2175

 General Reference for PM7:
 "Optimization of Parameters for Semiempirical Methods VI: More Modifications to the 
 NDDO Approximations and Re-optimization of Parameters", J. J. P. Stewart, J. Mol. Mod., 1:32, 19 (2013)
 https://link.springer.com/article/10.1007/s00894-012-1667-x

           Empirical Formula: C6 H13 N O  =    21 atoms



      MOLECULAR POINT GROUP   :   C1  


      RHF CALCULATION, NO. OF DOUBLY OCCUPIED LEVELS = 24


          Geometry optimization using EF

          DIAGONAL MATRIX USED AS START HESSIAN

 CYCLE:     1 TIME:   0.016 TIME LEFT:  2.00D  GRAD.:   132.411 HEAT: -68.99163
 CYCLE:     2 TIME:   0.023 TIME LEFT:  2.00D  GRAD.:    60.780 HEAT: -72.47072
 CYCLE:     3 TIME:   0.008 TIME LEFT:  2.00D  GRAD.:    54.802 HEAT: -74.29697
 CYCLE:     4 TIME:   0.016 TIME LEFT:  2.00D  GRAD.:    40.264 HEAT: -74.85464
 CYCLE:     5 TIME:   0.008 TIME LEFT:  2.00D  GRAD.:    22.460 HEAT: -75.31595
 CYCLE:     6 TIME:   0.012 TIME LEFT:  2.00D  GRAD.:    22.654 HEAT: -75.42017
 CYCLE:     7 TIME:   0.012 TIME LEFT:  2.00D  GRAD.:     8.035 HEAT: -75.58211
 CYCLE:     8 TIME:   0.012 TIME LEFT:  2.00D  GRAD.:     7.494 HEAT: -75.60173
 CYCLE:     9 TIME:   0.004 TIME LEFT:  2.00D  GRAD.:     6.718 HEAT: -75.61915
 CYCLE:    10 TIME:   0.008 TIME LEFT:  2.00D  GRAD.:     5.489 HEAT: -75.63371
 CYCLE:    11 TIME:   0.004 TIME LEFT:  2.00D  GRAD.:     4.520 HEAT: -75.64356
 CYCLE:    12 TIME:   0.008 TIME LEFT:  2.00D  GRAD.:     7.200 HEAT: -75.64762
 CYCLE:    13 TIME:   0.012 TIME LEFT:  2.00D  GRAD.:     6.077 HEAT: -75.65872
 CYCLE:    14 TIME:   0.012 TIME LEFT:  2.00D  GRAD.:     7.062 HEAT: -75.66295
 CYCLE:    15 TIME:   0.020 TIME LEFT:  2.00D  GRAD.:     3.618 HEAT: -75.67646
 CYCLE:    16 TIME:   0.020 TIME LEFT:  2.00D  GRAD.:     3.232 HEAT: -75.67982
 CYCLE:    17 TIME:   0.012 TIME LEFT:  2.00D  GRAD.:     1.287 HEAT: -75.68390
 CYCLE:    18 TIME:   0.012 TIME LEFT:  2.00D  GRAD.:     7.478 HEAT: -75.67463
 CYCLE:    19 TIME:   0.016 TIME LEFT:  2.00D  GRAD.:     1.680 HEAT: -75.68997
 CYCLE:    20 TIME:   0.012 TIME LEFT:  2.00D  GRAD.:     4.696 HEAT: -75.68229
 CYCLE:    21 TIME:   0.008 TIME LEFT:  2.00D  GRAD.:     1.709 HEAT: -75.69057
 CYCLE:    22 TIME:   0.023 TIME LEFT:  2.00D  GRAD.:     2.597 HEAT: -75.68941
 CYCLE:    23 TIME:   0.012 TIME LEFT:  2.00D  GRAD.:     1.455 HEAT: -75.69139
 CYCLE:    24 TIME:   0.012 TIME LEFT:  2.00D  GRAD.:     2.204 HEAT: -75.69010
 CYCLE:    25 TIME:   0.012 TIME LEFT:  2.00D  GRAD.:     1.292 HEAT: -75.69252
 CYCLE:    26 TIME:   0.012 TIME LEFT:  2.00D  GRAD.:     3.791 HEAT: -75.68674
 CYCLE:    27 TIME:   0.012 TIME LEFT:  2.00D  GRAD.:     1.146 HEAT: -75.69328
 CYCLE:    28 TIME:   0.012 TIME LEFT:  2.00D  GRAD.:     4.779 HEAT: -75.68461
 CYCLE:    29 TIME:   0.016 TIME LEFT:  2.00D  GRAD.:     0.582 HEAT: -75.69433

     GRADIENT =  0.58207 IS LESS THAN CUTOFF =  1.00000



 -------------------------------------------------------------------------------
 PM7 XYZ

 freesolv_374 - geometry optimisation


     GEOMETRY OPTIMISED USING EIGENVECTOR FOLLOWING (EF).     
     SCF FIELD WAS ACHIEVED                                   


                              PM7 CALCULATION
                                                       MOPAC v23.0.3 Linux
                                                       Fri Jul 25 15:24:12 2025




          FINAL HEAT OF FORMATION =        -75.69433 KCAL/MOL =    -316.70507 KJ/MOL


          COSMO AREA              =        172.15 SQUARE ANGSTROMS
          COSMO VOLUME            =        166.26 CUBIC ANGSTROMS

          GRADIENT NORM           =          0.58207          =       0.12702 PER ATOM
          IONIZATION POTENTIAL    =         10.286462 EV
          HOMO LUMO ENERGIES (EV) =        -10.286  1.352
          NO. OF FILLED LEVELS    =         24
          MOLECULAR WEIGHT        =        115.1748         POINT GROUP:  C1  

          MOLECULAR DIMENSIONS (Angstroms)

            Atom       Atom       Distance
            H    21    H    10     8.02138
            H    20    H    14     3.37462
            H    13    H    19     3.12178


          SCF CALCULATIONS        =         40

          WALL-CLOCK TIME         =      0.387 SECONDS
          COMPUTATION TIME        =      2.466 SECONDS




   ATOM   CHEMICAL          X               Y               Z
  NUMBER   SYMBOL      (ANGSTROMS)     (ANGSTROMS)     (ANGSTROMS)

     1       C         -3.21558850  *   0.03717485  *  -0.11054836  *
     2       C         -1.72360523  *  -0.13393804  *  -0.39797183  *
     3       C         -0.91760634  *  -0.14189629  *   0.90786175  *
     4       C          0.56623482  *  -0.44841003  *   0.67176600  *
     5       C          1.28439622  *   0.71828138  *  -0.01602694  *
     6       C          2.76809542  *   0.43867239  *  -0.06614788  *
     7       O          3.55974124  *   0.84510762  *   0.75794190  *
     8       N          3.22462510  *  -0.32819998  *  -1.12561210  *
     9       H         -3.41671666  *   0.97191049  *   0.42478822  *
    10       H         -3.79982498  *   0.05665672  *  -1.03680098  *
    11       H         -3.60287872  *  -0.78376914  *   0.50357421  *
    12       H         -1.37290796  *   0.68077100  *  -1.05856677  *
    13       H         -1.55308808  *  -1.07347851  *  -0.95630856  *
    14       H         -1.34066290  *  -0.89744852  *   1.59918202  *
    15       H         -1.02925543  *   0.82875742  *   1.42700946  *
    16       H          1.05593078  *  -0.65966387  *   1.64570073  *
    17       H          0.67325483  *  -1.37370300  *   0.07565073  *
    18       H          0.86655691  *   0.90426454  *  -1.02209558  *
    19       H          1.11978389  *   1.65778508  *   0.55562938  *
    20       H          2.62289495  *  -0.70641756  *  -1.81866847  *
    21       H          4.19690934  *  -0.55097298  *  -1.19657672  *

                             CARTESIAN COORDINATES

   1    C       -3.215588502     0.037174855    -0.110548361
   2    C       -1.723605232    -0.133938039    -0.397971830
   3    C       -0.917606337    -0.141896289     0.907861747
   4    C        0.566234816    -0.448410026     0.671765996
   5    C        1.284396217     0.718281385    -0.016026938
   6    C        2.768095421     0.438672394    -0.066147885
   7    O        3.559741238     0.845107621     0.757941897
   8    N        3.224625102    -0.328199979    -1.125612104
   9    H       -3.416716661     0.971910489     0.424788220
  10    H       -3.799824979     0.056656715    -1.036800979
  11    H       -3.602878721    -0.783769135     0.503574206
  12    H       -1.372907961     0.680770996    -1.058566775
  13    H       -1.553088079    -1.073478508    -0.956308561
  14    H       -1.340662901    -0.897448524     1.599182017
  15    H       -1.029255434     0.828757421     1.427009464
  16    H        1.055930782    -0.659663870     1.645700726
  17    H        0.673254834    -1.373703004     0.075650728
  18    H        0.866556912     0.904264538    -1.022095577
  19    H        1.119783889     1.657785079     0.555629382
  20    H        2.622894954    -0.706417563    -1.818668470
  21    H        4.196909345    -0.550972984    -1.196576719


           Empirical Formula: C6 H13 N O  =    21 atoms



      MOLECULAR POINT GROUP   :   C1  


                  EIGENVALUES  
 -36.98956 -30.14895 -29.43707 -27.13393 -24.40261 -21.46415 -20.49727 -19.88136
 -18.02186 -16.88248 -16.26296 -15.37236 -15.02969 -14.59122 -14.11963 -13.48047
 -13.44334 -12.74501 -12.35450 -12.13361 -11.61989 -11.46506 -10.42645 -10.28646
   1.35196   2.48091   3.42374   3.88137   3.89640   4.25672   4.52928   4.81542
   5.21902   5.28262   5.61564   5.67796   5.72439   5.92012   5.95747   6.08137
   6.23333   6.44435   6.45173   6.86232   6.87338


              NET ATOMIC CHARGES AND DIPOLE CONTRIBUTIONS

  ATOM NO.   TYPE          CHARGE      No. of ELECS.   s-Pop       p-Pop       
    1          C          -0.442339        4.4423     1.05227     3.39007
    2          C          -0.247930        4.2479     1.05521     3.19272
    3          C          -0.269083        4.2691     1.05987     3.20921
    4          C          -0.256171        4.2562     1.05778     3.19839
    5          C          -0.362844        4.3628     1.06992     3.29292
    6          C           0.597496        3.4025     1.08312     2.31938
    7          O          -0.527938        6.5279     1.88011     4.64782
    8          N          -0.704793        5.7048     1.54234     4.16246
    9          H           0.144146        0.8559     0.85585
   10          H           0.140714        0.8593     0.85929
   11          H           0.143182        0.8568     0.85682
   12          H           0.132298        0.8677     0.86770
   13          H           0.132365        0.8676     0.86763
   14          H           0.139746        0.8603     0.86025
   15          H           0.142286        0.8577     0.85771
   16          H           0.152373        0.8476     0.84763
   17          H           0.137778        0.8622     0.86222
   18          H           0.157946        0.8421     0.84205
   19          H           0.179973        0.8200     0.82003
   20          H           0.300379        0.6996     0.69962
   21          H           0.310415        0.6896     0.68958
 DIPOLE           X         Y         Z       TOTAL
 POINT-CHG.    -2.853    -1.436    -2.305     3.939
 HYBRID         0.307    -0.243    -0.344     0.520
 SUM           -2.546    -1.679    -2.649     4.040


          ATOMIC ORBITAL ELECTRON POPULATIONS

     Atom    s        px        py        pz   
    1  C   1.05227   1.04737   1.17402   1.16869
    2  C   1.05521   0.99026   1.15528   1.04718
    3  C   1.05987   0.99094   1.16336   1.05491
    4  C   1.05778   1.01518   1.04633   1.13688
    5  C   1.06992   1.01492   1.11498   1.16302
    6  C   1.08312   0.86255   0.72013   0.73670
    7  O   1.88011   1.60658   1.56911   1.47213
    8  N   1.54234   1.22299   1.58393   1.35554
    9  H   0.85585
   10  H   0.85929
   11  H   0.85682
   12  H   0.86770
   13  H   0.86763
   14  H   0.86025
   15  H   0.85771
   16  H   0.84763
   17  H   0.86222
   18  H   0.84205
   19  H   0.82003
   20  H   0.69962
   21  H   0.68958

 **********************
 *                    *
 * JOB ENDED NORMALLY *
 *                    *
 **********************



 TOTAL JOB TIME:             0.39 SECONDS

 == MOPAC DONE ==
