 *******************************************************************************
 **                                                                           **
 **                              MOPAC v23.0.3                                **
 **                                                                           **
 *******************************************************************************
 **          Digital Object Identifier (DOI): 10.5281/zenodo.6511958          **
 **    Visit the DOI location for information on how to cite this program.    **
 *******************************************************************************

                              PM7 CALCULATION RESULTS

 *******************************************************************************
 *  CALCULATION DONE:                                Fri Jul 25 15:22:27 2025  *
 *  PM7        - The PM7 Hamiltonian to be used
 *  XYZ        - CARTESIAN COORDINATE SYSTEM TO BE USED
 *  T=         - A TIME OF 172800.0 SECONDS REQUESTED
 *  DUMP=N     - RESTART FILE WRITTEN EVERY 7200.0 SECONDS REQUESTED
 *******************************************************************************
PM7 XYZ

 freesolv_207 - geometry optimisation
   ATOM   CHEMICAL          X               Y               Z
  NUMBER   SYMBOL      (ANGSTROMS)     (ANGSTROMS)     (ANGSTROMS)

     1       C         -4.05190900  *  -0.48280100  *   0.33351500  *
     2       C         -2.67736800  *   0.17639200  *   0.39856200  *
     3       C         -1.87242800  *  -0.09738700  *  -0.87453800  *
     4       C         -0.52706600  *   0.55013000  *  -0.78998800  *
     5       O         -0.36224800  *   1.71551000  *  -1.24390200  *
     6       O          0.52395300  *  -0.12824100  *  -0.16653500  *
     7       C          1.82367900  *   0.43510800  *  -0.02398300  *
     8       C          2.73072400  *  -0.55797000  *   0.69891500  *
     9       C          4.13814000  *   0.00414400  *   0.87567900  *
    10       H         -4.61183600  *  -0.26775900  *   1.26797200  *
    11       H         -4.63062400  *  -0.08440300  *  -0.52699600  *
    12       H         -3.94727200  *  -1.58367900  *   0.22750700  *
    13       H         -2.80978800  *   1.27283900  *   0.52980200  *
    14       H         -2.12943500  *  -0.22042500  *   1.28141200  *
    15       H         -1.73801700  *  -1.19280700  *  -1.00754500  *
    16       H         -2.41842300  *   0.29579400  *  -1.76010300  *
    17       H          1.75601800  *   1.37702000  *   0.56371000  *
    18       H          2.24131400  *   0.66091100  *  -1.02981900  *
    19       H          2.78596100  *  -1.50132700  *   0.11348500  *
    20       H          2.30247300  *  -0.78913500  *   1.69836200  *
    21       H          4.10834500  *   0.93664400  *   1.47873800  *
    22       H          4.59411800  *   0.22116900  *  -0.11381900  *
    23       H          4.77168500  *  -0.73972800  *   1.40312800  *



          CARTESIAN COORDINATES 

    NO.       ATOM           X           Y           Z

     1         C         -4.0519     -0.4828      0.3335
     2         C         -2.6774      0.1764      0.3986
     3         C         -1.8724     -0.0974     -0.8745
     4         C         -0.5271      0.5501     -0.7900
     5         O         -0.3622      1.7155     -1.2439
     6         O          0.5240     -0.1282     -0.1665
     7         C          1.8237      0.4351     -0.0240
     8         C          2.7307     -0.5580      0.6989
     9         C          4.1381      0.0041      0.8757
    10         H         -4.6118     -0.2678      1.2680
    11         H         -4.6306     -0.0844     -0.5270
    12         H         -3.9473     -1.5837      0.2275
    13         H         -2.8098      1.2728      0.5298
    14         H         -2.1294     -0.2204      1.2814
    15         H         -1.7380     -1.1928     -1.0075
    16         H         -2.4184      0.2958     -1.7601
    17         H          1.7560      1.3770      0.5637
    18         H          2.2413      0.6609     -1.0298
    19         H          2.7860     -1.5013      0.1135
    20         H          2.3025     -0.7891      1.6984
    21         H          4.1083      0.9366      1.4787
    22         H          4.5941      0.2212     -0.1138
    23         H          4.7717     -0.7397      1.4031

 General Reference for PM7:
 "Optimization of Parameters for Semiempirical Methods VI: More Modifications to the 
 NDDO Approximations and Re-optimization of Parameters", J. J. P. Stewart, J. Mol. Mod., 1:32, 19 (2013)
 https://link.springer.com/article/10.1007/s00894-012-1667-x

           Empirical Formula: C7 H14 O2  =    23 atoms



      MOLECULAR POINT GROUP   :   C1  


      RHF CALCULATION, NO. OF DOUBLY OCCUPIED LEVELS = 27


          Geometry optimization using EF

          DIAGONAL MATRIX USED AS START HESSIAN

 CYCLE:     1 TIME:   0.012 TIME LEFT:  2.00D  GRAD.:   163.194 HEAT: -108.4665
 CYCLE:     2 TIME:   0.016 TIME LEFT:  2.00D  GRAD.:   211.204 HEAT: -109.2820
 CYCLE:     3 TIME:   0.008 TIME LEFT:  2.00D  GRAD.:   113.214 HEAT: -112.4370
 CYCLE:     4 TIME:   0.008 TIME LEFT:  2.00D  GRAD.:   108.711 HEAT: -113.6776
 CYCLE:     5 TIME:   0.008 TIME LEFT:  2.00D  GRAD.:    76.833 HEAT: -114.9976
 CYCLE:     6 TIME:   0.004 TIME LEFT:  2.00D  GRAD.:   108.533 HEAT: -115.1296
 CYCLE:     7 TIME:   0.008 TIME LEFT:  2.00D  GRAD.:    43.936 HEAT: -117.0626
 CYCLE:     8 TIME:   0.016 TIME LEFT:  2.00D  GRAD.:    40.424 HEAT: -117.5090
 CYCLE:     9 TIME:   0.008 TIME LEFT:  2.00D  GRAD.:    27.136 HEAT: -117.8307
 CYCLE:    10 TIME:   0.012 TIME LEFT:  2.00D  GRAD.:    28.077 HEAT: -118.0780
 CYCLE:    11 TIME:   0.008 TIME LEFT:  2.00D  GRAD.:    17.725 HEAT: -118.2393
 CYCLE:    12 TIME:   0.004 TIME LEFT:  2.00D  GRAD.:    34.677 HEAT: -118.2640
 CYCLE:    13 TIME:   0.008 TIME LEFT:  2.00D  GRAD.:    12.968 HEAT: -118.5371
 CYCLE:    14 TIME:   0.016 TIME LEFT:  2.00D  GRAD.:    12.474 HEAT: -118.5850
 CYCLE:    15 TIME:   0.012 TIME LEFT:  2.00D  GRAD.:     6.848 HEAT: -118.6396
 CYCLE:    16 TIME:   0.016 TIME LEFT:  2.00D  GRAD.:    11.285 HEAT: -118.6643
 CYCLE:    17 TIME:   0.016 TIME LEFT:  2.00D  GRAD.:     7.402 HEAT: -118.7282
 CYCLE:    18 TIME:   0.023 TIME LEFT:  2.00D  GRAD.:    11.753 HEAT: -118.7352
 CYCLE:    19 TIME:   0.016 TIME LEFT:  2.00D  GRAD.:     9.597 HEAT: -118.7848
 CYCLE:    20 TIME:   0.016 TIME LEFT:  2.00D  GRAD.:    10.537 HEAT: -118.7997
 CYCLE:    21 TIME:   0.012 TIME LEFT:  2.00D  GRAD.:    10.772 HEAT: -118.8285
 CYCLE:    22 TIME:   0.027 TIME LEFT:  2.00D  GRAD.:     9.057 HEAT: -118.8459
 CYCLE:    23 TIME:   0.027 TIME LEFT:  2.00D  GRAD.:     5.180 HEAT: -118.8677
 CYCLE:    24 TIME:   0.023 TIME LEFT:  2.00D  GRAD.:     4.285 HEAT: -118.8744
 CYCLE:    25 TIME:   0.016 TIME LEFT:  2.00D  GRAD.:     2.636 HEAT: -118.8799
 CYCLE:    26 TIME:   0.023 TIME LEFT:  2.00D  GRAD.:     7.949 HEAT: -118.8811
 CYCLE:    27 TIME:   0.016 TIME LEFT:  2.00D  GRAD.:     3.371 HEAT: -118.8967
 CYCLE:    28 TIME:   0.039 TIME LEFT:  2.00D  GRAD.:     3.852 HEAT: -118.8989
 CYCLE:    29 TIME:   0.012 TIME LEFT:  2.00D  GRAD.:     1.704 HEAT: -118.9048
 CYCLE:    30 TIME:   0.016 TIME LEFT:  2.00D  GRAD.:     5.744 HEAT: -118.9132
 CYCLE:    31 TIME:   0.016 TIME LEFT:  2.00D  GRAD.:     5.559 HEAT: -118.9250
 CYCLE:    32 TIME:   0.023 TIME LEFT:  2.00D  GRAD.:     6.480 HEAT: -118.9319
 CYCLE:    33 TIME:   0.027 TIME LEFT:  2.00D  GRAD.:     4.752 HEAT: -118.9388
 CYCLE:    34 TIME:   0.012 TIME LEFT:  2.00D  GRAD.:     3.137 HEAT: -118.9493
 CYCLE:    35 TIME:   0.023 TIME LEFT:  2.00D  GRAD.:     3.876 HEAT: -118.9488
 CYCLE:    36 TIME:   0.012 TIME LEFT:  2.00D  GRAD.:     2.964 HEAT: -118.9551
 CYCLE:    37 TIME:   0.035 TIME LEFT:  2.00D  GRAD.:     3.898 HEAT: -118.9527
 CYCLE:    38 TIME:   0.016 TIME LEFT:  2.00D  GRAD.:     1.312 HEAT: -118.9599
 CYCLE:    39 TIME:   0.016 TIME LEFT:  2.00D  GRAD.:     4.358 HEAT: -118.9542
 CYCLE:    40 TIME:   0.012 TIME LEFT:  2.00D  GRAD.:     1.682 HEAT: -118.9611
 CYCLE:    41 TIME:   0.012 TIME LEFT:  2.00D  GRAD.:     3.126 HEAT: -118.9568
 CYCLE:    42 TIME:   0.016 TIME LEFT:  2.00D  GRAD.:     1.064 HEAT: -118.9628
 CYCLE:    43 TIME:   0.016 TIME LEFT:  2.00D  GRAD.:     4.456 HEAT: -118.9553
 CYCLE:    44 TIME:   0.012 TIME LEFT:  2.00D  GRAD.:     0.594 HEAT: -118.9637

     GRADIENT =  0.59362 IS LESS THAN CUTOFF =  1.00000



 -------------------------------------------------------------------------------
 PM7 XYZ

 freesolv_207 - geometry optimisation


     GEOMETRY OPTIMISED USING EIGENVECTOR FOLLOWING (EF).     
     SCF FIELD WAS ACHIEVED                                   


                              PM7 CALCULATION
                                                       MOPAC v23.0.3 Linux
                                                       Fri Jul 25 15:22:27 2025




          FINAL HEAT OF FORMATION =       -118.96372 KCAL/MOL =    -497.74418 KJ/MOL


          COSMO AREA              =        191.97 SQUARE ANGSTROMS
          COSMO VOLUME            =        182.66 CUBIC ANGSTROMS

          GRADIENT NORM           =          0.59362          =       0.12378 PER ATOM
          IONIZATION POTENTIAL    =         10.705089 EV
          HOMO LUMO ENERGIES (EV) =        -10.705  1.144
          NO. OF FILLED LEVELS    =         27
          MOLECULAR WEIGHT        =        130.1864         POINT GROUP:  C1  

          MOLECULAR DIMENSIONS (Angstroms)

            Atom       Atom       Distance
            H    23    H    11     9.41859
            O     5    H    12     4.11788
            H    15    H    10     2.71401


          SCF CALCULATIONS        =         62

          WALL-CLOCK TIME         =      0.711 SECONDS
          COMPUTATION TIME        =      5.217 SECONDS




   ATOM   CHEMICAL          X               Y               Z
  NUMBER   SYMBOL      (ANGSTROMS)     (ANGSTROMS)     (ANGSTROMS)

     1       C         -3.97720755  *  -0.48145191  *   0.33365854  *
     2       C         -2.59849814  *   0.16980890  *   0.41651210  *
     3       C         -1.76773034  *  -0.16136261  *  -0.83067766  *
     4       C         -0.48626642  *   0.61621118  *  -0.78595972  *
     5       O         -0.28818929  *   1.73414250  *  -1.18676474  *
     6       O          0.48430664  *  -0.12720895  *  -0.20175879  *
     7       C          1.76950117  *   0.49636613  *  -0.06558559  *
     8       C          2.60882658  *  -0.54715094  *   0.67047897  *
     9       C          4.03012225  *  -0.02838464  *   0.86538526  *
    10       H         -4.56816261  *  -0.27066940  *   1.23291839  *
    11       H         -4.54792857  *  -0.10992564  *  -0.52535738  *
    12       H         -3.90560682  *  -1.57065844  *   0.23792023  *
    13       H         -2.70474485  *   1.26860577  *   0.52262011  *
    14       H         -2.06731869  *  -0.17516870  *   1.32608274  *
    15       H         -1.57190484  *  -1.25231429  *  -0.88585263  *
    16       H         -2.32556515  *   0.10478884  *  -1.75355706  *
    17       H          1.65166367  *   1.43370067  *   0.50417796  *
    18       H          2.15411366  *   0.72630918  *  -1.07399177  *
    19       H          2.61248773  *  -1.49806245  *   0.10219940  *
    20       H          2.14169016  *  -0.78899093  *   1.64511360  *
    21       H          4.04765660  *   0.89343032  *   1.45905007  *
    22       H          4.51871989  *   0.18509273  *  -0.09295469  *
    23       H          4.65061572  *  -0.76509661  *   1.38969463  *

                             CARTESIAN COORDINATES

   1    C       -3.977207546    -0.481451910     0.333658537
   2    C       -2.598498142     0.169808898     0.416512100
   3    C       -1.767730337    -0.161362613    -0.830677658
   4    C       -0.486266424     0.616211177    -0.785959715
   5    O       -0.288189290     1.734142503    -1.186764742
   6    O        0.484306638    -0.127208953    -0.201758786
   7    C        1.769501173     0.496366131    -0.065585589
   8    C        2.608826577    -0.547150945     0.670478973
   9    C        4.030122246    -0.028384643     0.865385262
  10    H       -4.568162607    -0.270669401     1.232918392
  11    H       -4.547928570    -0.109925638    -0.525357381
  12    H       -3.905606823    -1.570658442     0.237920226
  13    H       -2.704744846     1.268605768     0.522620109
  14    H       -2.067318688    -0.175168702     1.326082737
  15    H       -1.571904835    -1.252314294    -0.885852633
  16    H       -2.325565149     0.104788840    -1.753557057
  17    H        1.651663665     1.433700673     0.504177958
  18    H        2.154113657     0.726309178    -1.073991770
  19    H        2.612487733    -1.498062447     0.102199404
  20    H        2.141690158    -0.788990926     1.645113604
  21    H        4.047656599     0.893430318     1.459050073
  22    H        4.518719893     0.185092734    -0.092954689
  23    H        4.650615719    -0.765096607     1.389694633


           Empirical Formula: C7 H14 O2  =    23 atoms



      MOLECULAR POINT GROUP   :   C1  


                  EIGENVALUES  
 -31.29712 -29.88002 -28.92300 -28.07842 -25.34217 -23.48661 -20.96903 -20.52817
 -19.83197 -17.26024 -16.80855 -16.23383 -15.87046 -15.37773 -14.74316 -14.29586
 -13.74762 -13.46378 -13.21564 -13.11493 -12.58639 -12.30640 -12.13541 -11.89329
 -11.74955 -10.97516 -10.70509   1.14400   1.71862   3.31394   3.68133   3.90572
   4.25965   4.35170   4.52283   4.92483   5.21166   5.30548   5.57316   5.61642
   5.62157   5.65851   5.86063   5.91446   5.95777   6.09286   6.28751   6.48890
   6.79531   6.80077


              NET ATOMIC CHARGES AND DIPOLE CONTRIBUTIONS

  ATOM NO.   TYPE          CHARGE      No. of ELECS.   s-Pop       p-Pop       
    1          C          -0.436370        4.4364     1.05169     3.38468
    2          C          -0.231827        4.2318     1.05393     3.17790
    3          C          -0.348628        4.3486     1.06894     3.27969
    4          C           0.605887        3.3941     1.12264     2.27147
    5          O          -0.514058        6.5141     1.87648     4.63758
    6          O          -0.441097        6.4411     1.86660     4.57450
    7          C          -0.011489        4.0115     1.09437     2.91712
    8          C          -0.277372        4.2774     1.05678     3.22059
    9          C          -0.436122        4.4361     1.05071     3.38541
   10          H           0.145479        0.8545     0.85452
   11          H           0.146373        0.8536     0.85363
   12          H           0.144827        0.8552     0.85517
   13          H           0.148606        0.8514     0.85139
   14          H           0.145061        0.8549     0.85494
   15          H           0.174342        0.8257     0.82566
   16          H           0.176599        0.8234     0.82340
   17          H           0.135315        0.8647     0.86468
   18          H           0.134978        0.8650     0.86502
   19          H           0.150464        0.8495     0.84954
   20          H           0.149674        0.8503     0.85033
   21          H           0.146434        0.8536     0.85357
   22          H           0.146564        0.8534     0.85344
   23          H           0.146359        0.8536     0.85364
 DIPOLE           X         Y         Z       TOTAL
 POINT-CHG.    -0.127    -1.929     1.147     2.248
 HYBRID         0.067     0.039    -0.099     0.126
 SUM           -0.059    -1.890     1.048     2.162


          ATOMIC ORBITAL ELECTRON POPULATIONS

     Atom    s        px        py        pz   
    1  C   1.05169   1.05701   1.15080   1.17688
    2  C   1.05393   1.00513   1.13457   1.03819
    3  C   1.06894   1.02620   1.14268   1.11081
    4  C   1.12264   0.81251   0.78162   0.67733
    5  O   1.87648   1.82239   1.29869   1.51650
    6  O   1.86660   1.30600   1.51601   1.75249
    7  C   1.09437   0.78910   1.01845   1.10957
    8  C   1.05678   0.99927   1.07982   1.14150
    9  C   1.05071   1.04855   1.16183   1.17503
   10  H   0.85452
   11  H   0.85363
   12  H   0.85517
   13  H   0.85139
   14  H   0.85494
   15  H   0.82566
   16  H   0.82340
   17  H   0.86468
   18  H   0.86502
   19  H   0.84954
   20  H   0.85033
   21  H   0.85357
   22  H   0.85344
   23  H   0.85364

 **********************
 *                    *
 * JOB ENDED NORMALLY *
 *                    *
 **********************



 TOTAL JOB TIME:             0.71 SECONDS

 == MOPAC DONE ==
