 *******************************************************************************
 **                                                                           **
 **                              MOPAC v23.0.3                                **
 **                                                                           **
 *******************************************************************************
 **          Digital Object Identifier (DOI): 10.5281/zenodo.6511958          **
 **    Visit the DOI location for information on how to cite this program.    **
 *******************************************************************************

                              PM7 CALCULATION RESULTS

 *******************************************************************************
 *  CALCULATION DONE:                                Fri Jul 25 15:22:00 2025  *
 *  PM7        - The PM7 Hamiltonian to be used
 *  XYZ        - CARTESIAN COORDINATE SYSTEM TO BE USED
 *  T=         - A TIME OF 172800.0 SECONDS REQUESTED
 *  DUMP=N     - RESTART FILE WRITTEN EVERY 7200.0 SECONDS REQUESTED
 *******************************************************************************
PM7 XYZ

 freesolv_180 - geometry optimisation
   ATOM   CHEMICAL          X               Y               Z
  NUMBER   SYMBOL      (ANGSTROMS)     (ANGSTROMS)     (ANGSTROMS)

     1       C          3.09278900  *  -0.86090300  *   0.43334400  *
     2       C          2.06326700  *  -0.54094600  *  -0.64961700  *
     3       C          1.58379600  *   0.91946500  *  -0.60387400  *
     4       C          0.77566300  *   1.26475500  *   0.65699800  *
     5       O         -0.29346900  *   0.35575200  *   0.84579700  *
     6       C         -1.48026200  *   0.85400900  *   0.26145900  *
     7       C         -2.57383000  *  -0.22110300  *   0.31581500  *
     8       C         -2.18322400  *  -1.44811600  *  -0.50973000  *
     9       O         -3.77656100  *   0.29937000  *  -0.18685600  *
    10       H          3.93604500  *  -0.13902500  *   0.39404400  *
    11       H          2.62530800  *  -0.83142300  *   1.43938200  *
    12       H          3.49456700  *  -1.88302900  *   0.26970100  *
    13       H          1.20012100  *  -1.23453100  *  -0.55970100  *
    14       H          2.53245400  *  -0.72272700  *  -1.64073000  *
    15       H          0.95485300  *   1.11067300  *  -1.49925400  *
    16       H          2.46013800  *   1.60032200  *  -0.67117200  *
    17       H          0.44441100  *   2.32930400  *   0.60770000  *
    18       H          1.44188300  *   1.20435500  *   1.54227600  *
    19       H         -1.32038200  *   1.15007700  *  -0.80082400  *
    20       H         -1.83294600  *   1.74257900  *   0.83250000  *
    21       H         -2.71569600  *  -0.54576500  *   1.37337100  *
    22       H         -1.26663500  *  -1.91943100  *  -0.09615700  *
    23       H         -2.00067800  *  -1.16403000  *  -1.56835100  *
    24       H         -3.00274400  *  -2.19713900  *  -0.47853600  *
    25       H         -4.15887100  *   0.87750700  *   0.52426000  *



          CARTESIAN COORDINATES 

    NO.       ATOM           X           Y           Z

     1         C          3.0928     -0.8609      0.4333
     2         C          2.0633     -0.5409     -0.6496
     3         C          1.5838      0.9195     -0.6039
     4         C          0.7757      1.2648      0.6570
     5         O         -0.2935      0.3558      0.8458
     6         C         -1.4803      0.8540      0.2615
     7         C         -2.5738     -0.2211      0.3158
     8         C         -2.1832     -1.4481     -0.5097
     9         O         -3.7766      0.2994     -0.1869
    10         H          3.9360     -0.1390      0.3940
    11         H          2.6253     -0.8314      1.4394
    12         H          3.4946     -1.8830      0.2697
    13         H          1.2001     -1.2345     -0.5597
    14         H          2.5325     -0.7227     -1.6407
    15         H          0.9549      1.1107     -1.4993
    16         H          2.4601      1.6003     -0.6712
    17         H          0.4444      2.3293      0.6077
    18         H          1.4419      1.2044      1.5423
    19         H         -1.3204      1.1501     -0.8008
    20         H         -1.8329      1.7426      0.8325
    21         H         -2.7157     -0.5458      1.3734
    22         H         -1.2666     -1.9194     -0.0962
    23         H         -2.0007     -1.1640     -1.5684
    24         H         -3.0027     -2.1971     -0.4785
    25         H         -4.1589      0.8775      0.5243

 General Reference for PM7:
 "Optimization of Parameters for Semiempirical Methods VI: More Modifications to the 
 NDDO Approximations and Re-optimization of Parameters", J. J. P. Stewart, J. Mol. Mod., 1:32, 19 (2013)
 https://link.springer.com/article/10.1007/s00894-012-1667-x

           Empirical Formula: C7 H16 O2  =    25 atoms



      MOLECULAR POINT GROUP   :   C1  


      RHF CALCULATION, NO. OF DOUBLY OCCUPIED LEVELS = 28


          Geometry optimization using EF

          DIAGONAL MATRIX USED AS START HESSIAN

 CYCLE:     1 TIME:   0.012 TIME LEFT:  2.00D  GRAD.:    63.687 HEAT: -110.1833
 CYCLE:     2 TIME:   0.020 TIME LEFT:  2.00D  GRAD.:    75.155 HEAT: -110.7067
 CYCLE:     3 TIME:   0.012 TIME LEFT:  2.00D  GRAD.:    39.698 HEAT: -112.5076
 CYCLE:     4 TIME:   0.016 TIME LEFT:  2.00D  GRAD.:    31.488 HEAT: -113.1553
 CYCLE:     5 TIME:   0.016 TIME LEFT:  2.00D  GRAD.:    18.643 HEAT: -113.4951
 CYCLE:     6 TIME:   0.012 TIME LEFT:  2.00D  GRAD.:    26.375 HEAT: -113.5194
 CYCLE:     7 TIME:   0.008 TIME LEFT:  2.00D  GRAD.:    27.047 HEAT: -113.6608
 CYCLE:     8 TIME:   0.008 TIME LEFT:  2.00D  GRAD.:    28.514 HEAT: -113.7206
 CYCLE:     9 TIME:   0.016 TIME LEFT:  2.00D  GRAD.:    12.683 HEAT: -114.0052
 CYCLE:    10 TIME:   0.016 TIME LEFT:  2.00D  GRAD.:     7.708 HEAT: -114.0782
 CYCLE:    11 TIME:   0.012 TIME LEFT:  2.00D  GRAD.:     8.212 HEAT: -114.1207
 CYCLE:    12 TIME:   0.008 TIME LEFT:  2.00D  GRAD.:     6.753 HEAT: -114.1975
 CYCLE:    13 TIME:   0.008 TIME LEFT:  2.00D  GRAD.:    10.358 HEAT: -114.2540
 CYCLE:    14 TIME:   0.008 TIME LEFT:  2.00D  GRAD.:     7.179 HEAT: -114.3689
 CYCLE:    15 TIME:   0.020 TIME LEFT:  2.00D  GRAD.:    11.605 HEAT: -114.3826
 CYCLE:    16 TIME:   0.008 TIME LEFT:  2.00D  GRAD.:     9.489 HEAT: -114.4443
 CYCLE:    17 TIME:   0.023 TIME LEFT:  2.00D  GRAD.:     5.064 HEAT: -114.4799
 CYCLE:    18 TIME:   0.008 TIME LEFT:  2.00D  GRAD.:     6.825 HEAT: -114.4925
 CYCLE:    19 TIME:   0.008 TIME LEFT:  2.00D  GRAD.:     4.488 HEAT: -114.5257
 CYCLE:    20 TIME:   0.012 TIME LEFT:  2.00D  GRAD.:     6.136 HEAT: -114.5470
 CYCLE:    21 TIME:   0.008 TIME LEFT:  2.00D  GRAD.:     6.362 HEAT: -114.5829
 CYCLE:    22 TIME:   0.008 TIME LEFT:  2.00D  GRAD.:     8.095 HEAT: -114.6146
 CYCLE:    23 TIME:   0.008 TIME LEFT:  2.00D  GRAD.:     7.354 HEAT: -114.6560
 CYCLE:    24 TIME:   0.023 TIME LEFT:  2.00D  GRAD.:     9.298 HEAT: -114.6589
 CYCLE:    25 TIME:   0.008 TIME LEFT:  2.00D  GRAD.:     5.942 HEAT: -114.6922
 CYCLE:    26 TIME:   0.016 TIME LEFT:  2.00D  GRAD.:     6.530 HEAT: -114.6997
 CYCLE:    27 TIME:   0.004 TIME LEFT:  2.00D  GRAD.:     3.917 HEAT: -114.7208
 CYCLE:    28 TIME:   0.008 TIME LEFT:  2.00D  GRAD.:     6.462 HEAT: -114.7278
 CYCLE:    29 TIME:   0.008 TIME LEFT:  2.00D  GRAD.:     4.541 HEAT: -114.7533
 CYCLE:    30 TIME:   0.008 TIME LEFT:  2.00D  GRAD.:     7.366 HEAT: -114.7593
 CYCLE:    31 TIME:   0.012 TIME LEFT:  2.00D  GRAD.:     4.922 HEAT: -114.7976
 CYCLE:    32 TIME:   0.020 TIME LEFT:  2.00D  GRAD.:     5.821 HEAT: -114.8009
 CYCLE:    33 TIME:   0.008 TIME LEFT:  2.00D  GRAD.:     2.360 HEAT: -114.8244
 CYCLE:    34 TIME:   0.008 TIME LEFT:  2.00D  GRAD.:     6.301 HEAT: -114.8327
 CYCLE:    35 TIME:   0.008 TIME LEFT:  2.00D  GRAD.:     3.709 HEAT: -114.8627
 CYCLE:    36 TIME:   0.008 TIME LEFT:  2.00D  GRAD.:     5.712 HEAT: -114.8925
 CYCLE:    37 TIME:   0.008 TIME LEFT:  2.00D  GRAD.:     6.252 HEAT: -114.9361
 CYCLE:    38 TIME:   0.008 TIME LEFT:  2.00D  GRAD.:     9.233 HEAT: -114.9559
 CYCLE:    39 TIME:   0.012 TIME LEFT:  2.00D  GRAD.:     9.617 HEAT: -114.9806
 CYCLE:    40 TIME:   0.020 TIME LEFT:  2.00D  GRAD.:     9.905 HEAT: -114.9876
 CYCLE:    41 TIME:   0.008 TIME LEFT:  2.00D  GRAD.:    10.288 HEAT: -114.9962
 CYCLE:    42 TIME:   0.016 TIME LEFT:  2.00D  GRAD.:     4.475 HEAT: -115.0320
 CYCLE:    43 TIME:   0.008 TIME LEFT:  2.00D  GRAD.:     2.064 HEAT: -115.0447
 CYCLE:    44 TIME:   0.008 TIME LEFT:  2.00D  GRAD.:     5.201 HEAT: -115.0465
 CYCLE:    45 TIME:   0.008 TIME LEFT:  2.00D  GRAD.:     4.983 HEAT: -115.0649
 CYCLE:    46 TIME:   0.008 TIME LEFT:  2.00D  GRAD.:     3.823 HEAT: -115.0802
 CYCLE:    47 TIME:   0.012 TIME LEFT:  2.00D  GRAD.:     7.481 HEAT: -115.0921
 CYCLE:    48 TIME:   0.008 TIME LEFT:  2.00D  GRAD.:     7.639 HEAT: -115.1035
 CYCLE:    49 TIME:   0.020 TIME LEFT:  2.00D  GRAD.:     7.114 HEAT: -115.1080
 CYCLE:    50 TIME:   0.008 TIME LEFT:  2.00D  GRAD.:     2.672 HEAT: -115.1414
 CYCLE:    51 TIME:   0.008 TIME LEFT:  2.00D  GRAD.:     2.197 HEAT: -115.1565
 CYCLE:    52 TIME:   0.008 TIME LEFT:  2.00D  GRAD.:     1.976 HEAT: -115.1735
 CYCLE:    53 TIME:   0.012 TIME LEFT:  2.00D  GRAD.:     1.511 HEAT: -115.1879
 CYCLE:    54 TIME:   0.008 TIME LEFT:  2.00D  GRAD.:     2.229 HEAT: -115.1979
 CYCLE:    55 TIME:   0.008 TIME LEFT:  2.00D  GRAD.:     2.445 HEAT: -115.2120
 CYCLE:    56 TIME:   0.008 TIME LEFT:  2.00D  GRAD.:     1.807 HEAT: -115.2226
 CYCLE:    57 TIME:   0.008 TIME LEFT:  2.00D  GRAD.:     1.784 HEAT: -115.2293
 CYCLE:    58 TIME:   0.012 TIME LEFT:  2.00D  GRAD.:     1.497 HEAT: -115.2347
 CYCLE:    59 TIME:   0.008 TIME LEFT:  2.00D  GRAD.:     1.058 HEAT: -115.2384
 CYCLE:    60 TIME:   0.008 TIME LEFT:  2.00D  GRAD.:     2.506 HEAT: -115.2427
 CYCLE:    61 TIME:   0.008 TIME LEFT:  2.00D  GRAD.:     1.265 HEAT: -115.2496
 CYCLE:    62 TIME:   0.008 TIME LEFT:  2.00D  GRAD.:     0.794 HEAT: -115.2551

     GRADIENT =  0.79396 IS LESS THAN CUTOFF =  1.00000



 -------------------------------------------------------------------------------
 PM7 XYZ

 freesolv_180 - geometry optimisation


     GEOMETRY OPTIMISED USING EIGENVECTOR FOLLOWING (EF).     
     SCF FIELD WAS ACHIEVED                                   


                              PM7 CALCULATION
                                                       MOPAC v23.0.3 Linux
                                                       Fri Jul 25 15:22:01 2025




          FINAL HEAT OF FORMATION =       -115.25512 KCAL/MOL =    -482.22743 KJ/MOL


          COSMO AREA              =        187.55 SQUARE ANGSTROMS
          COSMO VOLUME            =        189.26 CUBIC ANGSTROMS

          GRADIENT NORM           =          0.79396          =       0.15879 PER ATOM
          IONIZATION POTENTIAL    =          9.965928 EV
          HOMO LUMO ENERGIES (EV) =         -9.966  2.121
          NO. OF FILLED LEVELS    =         28
          MOLECULAR WEIGHT        =        132.2022         POINT GROUP:  C1  

          MOLECULAR DIMENSIONS (Angstroms)

            Atom       Atom       Distance
            H    25    H    10     8.18875
            H    24    H    17     5.27080
            H    15    H    11     3.20139


          SCF CALCULATIONS        =         81

          WALL-CLOCK TIME         =      0.672 SECONDS
          COMPUTATION TIME        =     13.407 SECONDS




   ATOM   CHEMICAL          X               Y               Z
  NUMBER   SYMBOL      (ANGSTROMS)     (ANGSTROMS)     (ANGSTROMS)

     1       C          3.13921421  *  -0.87600842  *   0.32580869  *
     2       C          1.92544413  *  -0.54807885  *  -0.54352815  *
     3       C          1.56364099  *   0.94199047  *  -0.49732155  *
     4       C          0.79369626  *   1.29807708  *   0.77810694  *
     5       O         -0.37510891  *   0.51848241  *   0.93513640  *
     6       C         -1.44572586  *   0.87260151  *   0.07389640  *
     7       C         -2.47597589  *  -0.25691950  *   0.29642003  *
     8       C         -2.19978681  *  -1.46770647  *  -0.58498070  *
     9       O         -3.74641158  *   0.21880946  *  -0.12048508  *
    10       H          4.00713882  *  -0.26674343  *   0.05369316  *
    11       H          2.92936617  *  -0.70190129  *   1.38683091  *
    12       H          3.42859829  *  -1.92768907  *   0.21943918  *
    13       H          1.05310977  *  -1.14889491  *  -0.21357992  *
    14       H          2.12339909  *  -0.85006182  *  -1.58917829  *
    15       H          0.96219011  *   1.20497045  *  -1.38777501  *
    16       H          2.47837741  *   1.56046591  *  -0.56126339  *
    17       H          0.54698872  *   2.37233991  *   0.82150245  *
    18       H          1.36228717  *   1.01798363  *   1.68711007  *
    19       H         -1.11474971  *   0.92573496  *  -0.97473354  *
    20       H         -1.84719928  *   1.85461818  *   0.37524733  *
    21       H         -2.52448662  *  -0.53380077  *   1.37329395  *
    22       H         -1.17405748  *  -1.82701191  *  -0.43969391  *
    23       H         -2.33400793  *  -1.22325626  *  -1.64649487  *
    24       H         -2.88996851  *  -2.28881313  *  -0.35728415  *
    25       H         -4.08701782  *   0.89345837  *   0.49430463  *

                             CARTESIAN COORDINATES

   1    C        3.139214214    -0.876008416     0.325808689
   2    C        1.925444132    -0.548078847    -0.543528151
   3    C        1.563640994     0.941990469    -0.497321549
   4    C        0.793696257     1.298077076     0.778106937
   5    O       -0.375108912     0.518482409     0.935136402
   6    C       -1.445725857     0.872601512     0.073896400
   7    C       -2.475975893    -0.256919501     0.296420025
   8    C       -2.199786809    -1.467706470    -0.584980699
   9    O       -3.746411578     0.218809462    -0.120485082
  10    H        4.007138823    -0.266743429     0.053693161
  11    H        2.929366171    -0.701901287     1.386830906
  12    H        3.428598292    -1.927689070     0.219439177
  13    H        1.053109769    -1.148894908    -0.213579917
  14    H        2.123399094    -0.850061825    -1.589178295
  15    H        0.962190112     1.204970452    -1.387775012
  16    H        2.478377410     1.560465912    -0.561263386
  17    H        0.546988721     2.372339909     0.821502450
  18    H        1.362287170     1.017983632     1.687110075
  19    H       -1.114749706     0.925734961    -0.974733540
  20    H       -1.847199278     1.854618184     0.375247328
  21    H       -2.524486618    -0.533800770     1.373293954
  22    H       -1.174057478    -1.827011908    -0.439693913
  23    H       -2.334007931    -1.223256264    -1.646494865
  24    H       -2.889968510    -2.288813135    -0.357284146
  25    H       -4.087017819     0.893458368     0.494304633


           Empirical Formula: C7 H16 O2  =    25 atoms



      MOLECULAR POINT GROUP   :   C1  


                  EIGENVALUES  
 -30.20996 -29.48228 -28.14350 -26.68152 -24.97487 -23.71692 -22.02195 -20.17422
 -19.57069 -17.81993 -16.64998 -16.18506 -16.01482 -15.43675 -14.79748 -13.95016
 -13.84340 -13.54252 -13.31351 -12.98677 -12.64082 -12.23891 -11.97621 -11.79963
 -11.49279 -11.31234 -10.53211  -9.96593   2.12068   3.16681   3.80538   3.99598
   4.19391   4.30421   4.58659   4.79303   5.47542   5.57094   5.61111   5.69984
   5.72185   5.88901   5.89755   5.95518   5.99195   6.05105   6.18324   6.21820
   6.48902   6.72655   7.06711   7.10411


              NET ATOMIC CHARGES AND DIPOLE CONTRIBUTIONS

  ATOM NO.   TYPE          CHARGE      No. of ELECS.   s-Pop       p-Pop       
    1          C          -0.438828        4.4388     1.05204     3.38679
    2          C          -0.240617        4.2406     1.05418     3.18643
    3          C          -0.315019        4.3150     1.06433     3.25069
    4          C          -0.033435        4.0334     1.08741     2.94602
    5          O          -0.402902        6.4029     1.87835     4.52455
    6          C          -0.107588        4.1076     1.09897     3.00862
    7          C           0.165301        3.8347     1.08610     2.74860
    8          C          -0.463334        4.4633     1.05679     3.40655
    9          O          -0.562988        6.5630     1.84928     4.71371
   10          H           0.139548        0.8605     0.86045
   11          H           0.143627        0.8564     0.85637
   12          H           0.140403        0.8596     0.85960
   13          H           0.150560        0.8494     0.84944
   14          H           0.129026        0.8710     0.87097
   15          H           0.138864        0.8611     0.86114
   16          H           0.142764        0.8572     0.85724
   17          H           0.111495        0.8885     0.88850
   18          H           0.142282        0.8577     0.85772
   19          H           0.131052        0.8689     0.86895
   20          H           0.119058        0.8809     0.88094
   21          H           0.125728        0.8743     0.87427
   22          H           0.156506        0.8435     0.84349
   23          H           0.160445        0.8396     0.83956
   24          H           0.157327        0.8427     0.84267
   25          H           0.310725        0.6893     0.68927
 DIPOLE           X         Y         Z       TOTAL
 POINT-CHG.     1.612     0.990     0.167     1.900
 HYBRID        -0.178     0.259     0.099     0.330
 SUM            1.434     1.250     0.266     1.921


          ATOMIC ORBITAL ELECTRON POPULATIONS

     Atom    s        px        py        pz   
    1  C   1.05204   1.08871   1.16244   1.13564
    2  C   1.05418   1.06767   1.01528   1.10349
    3  C   1.06433   1.12296   1.05092   1.07682
    4  C   1.08741   0.87565   1.02045   1.04992
    5  O   1.87835   1.29003   1.61978   1.61474
    6  C   1.09897   0.91009   1.06320   1.03533
    7  C   1.08610   0.77588   0.93038   1.04234
    8  C   1.05679   1.16857   1.09242   1.14556
    9  O   1.84928   1.43403   1.66775   1.61193
   10  H   0.86045
   11  H   0.85637
   12  H   0.85960
   13  H   0.84944
   14  H   0.87097
   15  H   0.86114
   16  H   0.85724
   17  H   0.88850
   18  H   0.85772
   19  H   0.86895
   20  H   0.88094
   21  H   0.87427
   22  H   0.84349
   23  H   0.83956
   24  H   0.84267
   25  H   0.68927

 **********************
 *                    *
 * JOB ENDED NORMALLY *
 *                    *
 **********************



 TOTAL JOB TIME:             0.67 SECONDS

 == MOPAC DONE ==
