 *******************************************************************************
 **                                                                           **
 **                              MOPAC v23.0.3                                **
 **                                                                           **
 *******************************************************************************
 **          Digital Object Identifier (DOI): 10.5281/zenodo.6511958          **
 **    Visit the DOI location for information on how to cite this program.    **
 *******************************************************************************

                              PM7 CALCULATION RESULTS

 *******************************************************************************
 *  CALCULATION DONE:                                Fri Jul 25 15:22:48 2025  *
 *  PM7        - The PM7 Hamiltonian to be used
 *  XYZ        - CARTESIAN COORDINATE SYSTEM TO BE USED
 *  T=         - A TIME OF 172800.0 SECONDS REQUESTED
 *  DUMP=N     - RESTART FILE WRITTEN EVERY 7200.0 SECONDS REQUESTED
 *******************************************************************************
PM7 XYZ

 freesolv_243 - geometry optimisation
   ATOM   CHEMICAL          X               Y               Z
  NUMBER   SYMBOL      (ANGSTROMS)     (ANGSTROMS)     (ANGSTROMS)

     1       C         -2.87053300  *   0.38133300  *  -0.43906900  *
     2       C         -2.13620600  *   0.18486100  *   0.88685500  *
     3       C         -0.61007700  *   0.27453500  *   0.73739800  *
     4       C         -0.01819000  *  -0.92818900  *  -0.00841100  *
     5       O          1.40703300  *  -0.88380000  *   0.02742600  *
     6       C          2.17063500  *  -0.01865400  *  -0.76428300  *
     7       O          1.61871600  *   0.76315400  *  -1.58553400  *
     8       C          3.65279000  *   0.00548700  *  -0.60600600  *
     9       H         -3.96455800  *   0.41782900  *  -0.25272400  *
    10       H         -2.66601100  *  -0.46211000  *  -1.13043300  *
    11       H         -2.56176300  *   1.33533400  *  -0.91693200  *
    12       H         -2.46731900  *   0.98006500  *   1.58946300  *
    13       H         -2.42131600  *  -0.79424000  *   1.32953300  *
    14       H         -0.33848500  *   1.21808200  *   0.21694600  *
    15       H         -0.16217400  *   0.31192700  *   1.75426100  *
    16       H         -0.34756700  *  -1.86557200  *   0.48811200  *
    17       H         -0.36675300  *  -0.95504000  *  -1.06301800  *
    18       H          3.93975800  *   0.84596400  *   0.05943100  *
    19       H          4.00267800  *  -0.94866800  *  -0.15920700  *
    20       H          4.13934300  *   0.13770300  *  -1.59537800  *



          CARTESIAN COORDINATES 

    NO.       ATOM           X           Y           Z

     1         C         -2.8705      0.3813     -0.4391
     2         C         -2.1362      0.1849      0.8869
     3         C         -0.6101      0.2745      0.7374
     4         C         -0.0182     -0.9282     -0.0084
     5         O          1.4070     -0.8838      0.0274
     6         C          2.1706     -0.0187     -0.7643
     7         O          1.6187      0.7632     -1.5855
     8         C          3.6528      0.0055     -0.6060
     9         H         -3.9646      0.4178     -0.2527
    10         H         -2.6660     -0.4621     -1.1304
    11         H         -2.5618      1.3353     -0.9169
    12         H         -2.4673      0.9801      1.5895
    13         H         -2.4213     -0.7942      1.3295
    14         H         -0.3385      1.2181      0.2169
    15         H         -0.1622      0.3119      1.7543
    16         H         -0.3476     -1.8656      0.4881
    17         H         -0.3668     -0.9550     -1.0630
    18         H          3.9398      0.8460      0.0594
    19         H          4.0027     -0.9487     -0.1592
    20         H          4.1393      0.1377     -1.5954

 General Reference for PM7:
 "Optimization of Parameters for Semiempirical Methods VI: More Modifications to the 
 NDDO Approximations and Re-optimization of Parameters", J. J. P. Stewart, J. Mol. Mod., 1:32, 19 (2013)
 https://link.springer.com/article/10.1007/s00894-012-1667-x

           Empirical Formula: C6 H12 O2  =    20 atoms



      MOLECULAR POINT GROUP   :   C1  


      RHF CALCULATION, NO. OF DOUBLY OCCUPIED LEVELS = 24


          Geometry optimization using EF

          DIAGONAL MATRIX USED AS START HESSIAN

 CYCLE:     1 TIME:   0.008 TIME LEFT:  2.00D  GRAD.:   160.206 HEAT: -104.5775
 CYCLE:     2 TIME:   0.012 TIME LEFT:  2.00D  GRAD.:   219.026 HEAT: -104.9625
 CYCLE:     3 TIME:   0.004 TIME LEFT:  2.00D  GRAD.:   100.977 HEAT: -109.2875
 CYCLE:     4 TIME:   0.008 TIME LEFT:  2.00D  GRAD.:   109.916 HEAT: -109.9274
 CYCLE:     5 TIME:   0.004 TIME LEFT:  2.00D  GRAD.:    67.671 HEAT: -111.7503
 CYCLE:     6 TIME:   0.012 TIME LEFT:  2.00D  GRAD.:    64.531 HEAT: -112.8804
 CYCLE:     7 TIME:   0.008 TIME LEFT:  2.00D  GRAD.:    32.431 HEAT: -113.6250
 CYCLE:     8 TIME:   0.008 TIME LEFT:  2.00D  GRAD.:    28.055 HEAT: -113.9874
 CYCLE:     9 TIME:   0.008 TIME LEFT:  2.00D  GRAD.:    13.623 HEAT: -114.2141
 CYCLE:    10 TIME:   0.004 TIME LEFT:  2.00D  GRAD.:    29.363 HEAT: -114.3002
 CYCLE:    11 TIME:   0.008 TIME LEFT:  2.00D  GRAD.:    24.190 HEAT: -114.3737
 CYCLE:    12 TIME:   0.008 TIME LEFT:  2.00D  GRAD.:    19.415 HEAT: -114.5553
 CYCLE:    13 TIME:   0.008 TIME LEFT:  2.00D  GRAD.:    12.311 HEAT: -114.6043
 CYCLE:    14 TIME:   0.008 TIME LEFT:  2.00D  GRAD.:    14.862 HEAT: -114.6442
 CYCLE:    15 TIME:   0.004 TIME LEFT:  2.00D  GRAD.:     9.534 HEAT: -114.6687
 CYCLE:    16 TIME:   0.004 TIME LEFT:  2.00D  GRAD.:    15.183 HEAT: -114.6692
 CYCLE:    17 TIME:   0.008 TIME LEFT:  2.00D  GRAD.:     6.896 HEAT: -114.7135
 CYCLE:    18 TIME:   0.012 TIME LEFT:  2.00D  GRAD.:     4.520 HEAT: -114.7318
 CYCLE:    19 TIME:   0.004 TIME LEFT:  2.00D  GRAD.:     2.819 HEAT: -114.7428
 CYCLE:    20 TIME:   0.012 TIME LEFT:  2.00D  GRAD.:     7.793 HEAT: -114.7493
 CYCLE:    21 TIME:   0.008 TIME LEFT:  2.00D  GRAD.:     5.078 HEAT: -114.7693
 CYCLE:    22 TIME:   0.031 TIME LEFT:  2.00D  GRAD.:     2.940 HEAT: -114.7738
 CYCLE:    23 TIME:   0.012 TIME LEFT:  2.00D  GRAD.:     1.675 HEAT: -114.7778
 CYCLE:    24 TIME:   0.020 TIME LEFT:  2.00D  GRAD.:     5.437 HEAT: -114.7775
 CYCLE:    25 TIME:   0.008 TIME LEFT:  2.00D  GRAD.:     5.091 HEAT: -114.7806
 CYCLE:    26 TIME:   0.004 TIME LEFT:  2.00D  GRAD.:     4.726 HEAT: -114.7820
 CYCLE:    27 TIME:   0.008 TIME LEFT:  2.00D  GRAD.:     5.173 HEAT: -114.7787
 CYCLE:    28 TIME:   0.012 TIME LEFT:  2.00D  GRAD.:     5.101 HEAT: -114.7824
 CYCLE:    29 TIME:   0.012 TIME LEFT:  2.00D  GRAD.:     3.085 HEAT: -114.7847
 CYCLE:    30 TIME:   0.008 TIME LEFT:  2.00D  GRAD.:     3.866 HEAT: -114.7850
 CYCLE:    31 TIME:   0.012 TIME LEFT:  2.00D  GRAD.:     2.015 HEAT: -114.7869
 CYCLE:    32 TIME:   0.012 TIME LEFT:  2.00D  GRAD.:     4.426 HEAT: -114.7831
 CYCLE:    33 TIME:   0.008 TIME LEFT:  2.00D  GRAD.:     1.671 HEAT: -114.7877
 CYCLE:    34 TIME:   0.008 TIME LEFT:  2.00D  GRAD.:     4.681 HEAT: -114.7808
 CYCLE:    35 TIME:   0.008 TIME LEFT:  2.00D  GRAD.:     0.532 HEAT: -114.7891

     GRADIENT =  0.53214 IS LESS THAN CUTOFF =  1.00000



 -------------------------------------------------------------------------------
 PM7 XYZ

 freesolv_243 - geometry optimisation


     GEOMETRY OPTIMISED USING EIGENVECTOR FOLLOWING (EF).     
     SCF FIELD WAS ACHIEVED                                   


                              PM7 CALCULATION
                                                       MOPAC v23.0.3 Linux
                                                       Fri Jul 25 15:22:49 2025




          FINAL HEAT OF FORMATION =       -114.78908 KCAL/MOL =    -480.27749 KJ/MOL


          COSMO AREA              =        167.31 SQUARE ANGSTROMS
          COSMO VOLUME            =        160.64 CUBIC ANGSTROMS

          GRADIENT NORM           =          0.53214          =       0.11899 PER ATOM
          IONIZATION POTENTIAL    =         10.780081 EV
          HOMO LUMO ENERGIES (EV) =        -10.780  1.159
          NO. OF FILLED LEVELS    =         24
          MOLECULAR WEIGHT        =        116.1596         POINT GROUP:  C1  

          MOLECULAR DIMENSIONS (Angstroms)

            Atom       Atom       Distance
            H    20    H     9     8.09250
            H    16    H    11     3.51883
            H    15    H    10     3.25160


          SCF CALCULATIONS        =         48

          WALL-CLOCK TIME         =      0.336 SECONDS
          COMPUTATION TIME        =      2.410 SECONDS




   ATOM   CHEMICAL          X               Y               Z
  NUMBER   SYMBOL      (ANGSTROMS)     (ANGSTROMS)     (ANGSTROMS)

     1       C         -2.80953596  *   0.36923060  *  -0.44624274  *
     2       C         -2.08470504  *   0.16747491  *   0.88452303  *
     3       C         -0.56509461  *   0.29721519  *   0.73502423  *
     4       C          0.01595884  *  -0.88734573  *  -0.03399164  *
     5       O          1.44271760  *  -0.84222177  *   0.02656695  *
     6       C          2.07915118  *   0.03089119  *  -0.79401134  *
     7       O          1.49720063  *   0.73804422  *  -1.57478417  *
     8       C          3.54972583  *  -0.04654505  *  -0.56074796  *
     9       H         -3.89564376  *   0.40170196  *  -0.30668461  *
    10       H         -2.59230125  *  -0.43829578  *  -1.15360641  *
    11       H         -2.51011819  *   1.30913095  *  -0.92615030  *
    12       H         -2.44326911  *   0.91651528  *   1.61876457  *
    13       H         -2.34518840  *  -0.81824036  *   1.31450832  *
    14       H         -0.31013049  *   1.24249228  *   0.21295380  *
    15       H         -0.08650993  *   0.36628476  *   1.73077878  *
    16       H         -0.19687529  *  -1.85829024  *   0.45001355  *
    17       H         -0.31250722  *  -0.90722276  *  -1.08817226  *
    18       H          3.87666023  *   0.76420591  *   0.10950064  *
    19       H          3.85358682  *  -0.99798959  *  -0.09760267  *
    20       H          4.10017391  *   0.06646108  *  -1.50795084  *

                             CARTESIAN COORDINATES

   1    C       -2.809535962     0.369230603    -0.446242742
   2    C       -2.084705042     0.167474911     0.884523028
   3    C       -0.565094614     0.297215186     0.735024228
   4    C        0.015958845    -0.887345728    -0.033991642
   5    O        1.442717604    -0.842221769     0.026566951
   6    C        2.079151185     0.030891190    -0.794011343
   7    O        1.497200626     0.738044217    -1.574784171
   8    C        3.549725829    -0.046545045    -0.560747958
   9    H       -3.895643762     0.401701964    -0.306684611
  10    H       -2.592301251    -0.438295780    -1.153606412
  11    H       -2.510118193     1.309130947    -0.926150302
  12    H       -2.443269109     0.916515275     1.618764571
  13    H       -2.345188401    -0.818240357     1.314508323
  14    H       -0.310130491     1.242492276     0.212953797
  15    H       -0.086509935     0.366284760     1.730778781
  16    H       -0.196875286    -1.858290236     0.450013547
  17    H       -0.312507221    -0.907222764    -1.088172259
  18    H        3.876660230     0.764205909     0.109500641
  19    H        3.853586822    -0.997989587    -0.097602670
  20    H        4.100173910     0.066461079    -1.507950839


           Empirical Formula: C6 H12 O2  =    20 atoms



      MOLECULAR POINT GROUP   :   C1  


                  EIGENVALUES  
 -31.31361 -29.95781 -28.72113 -26.90352 -24.83835 -22.44272 -20.45584 -19.54711
 -17.22496 -16.56811 -16.22608 -15.47759 -15.15487 -14.40649 -14.08394 -13.86717
 -13.24887 -13.12235 -12.66006 -12.04259 -11.82018 -11.57120 -10.94762 -10.78008
   1.15903   1.72230   3.42935   3.96480   4.13848   4.29255   4.57759   4.90407
   5.00859   5.35844   5.48559   5.49344   5.87156   5.90048   5.98577   6.06716
   6.26996   6.48227   6.62082   7.05437


              NET ATOMIC CHARGES AND DIPOLE CONTRIBUTIONS

  ATOM NO.   TYPE          CHARGE      No. of ELECS.   s-Pop       p-Pop       
    1          C          -0.437603        4.4376     1.05200     3.38560
    2          C          -0.244095        4.2441     1.05361     3.19049
    3          C          -0.318985        4.3190     1.06455     3.25443
    4          C          -0.005054        4.0051     1.09399     2.91106
    5          O          -0.443414        6.4434     1.86536     4.57805
    6          C           0.629204        3.3708     1.11192     2.25887
    7          O          -0.512867        6.5129     1.87632     4.63654
    8          C          -0.512550        4.5125     1.06037     3.45218
    9          H           0.140394        0.8596     0.85961
   10          H           0.142223        0.8578     0.85778
   11          H           0.150435        0.8496     0.84957
   12          H           0.137090        0.8629     0.86291
   13          H           0.133582        0.8664     0.86642
   14          H           0.162961        0.8370     0.83704
   15          H           0.146279        0.8537     0.85372
   16          H           0.138317        0.8617     0.86168
   17          H           0.140117        0.8599     0.85988
   18          H           0.184806        0.8152     0.81519
   19          H           0.184041        0.8160     0.81596
   20          H           0.185121        0.8149     0.81488
 DIPOLE           X         Y         Z       TOTAL
 POINT-CHG.     0.522    -0.987     1.444     1.825
 HYBRID         0.043     0.066    -0.050     0.094
 SUM            0.566    -0.920     1.394     1.764


          ATOMIC ORBITAL ELECTRON POPULATIONS

     Atom    s        px        py        pz   
    1  C   1.05200   1.13622   1.17854   1.07085
    2  C   1.05361   0.98789   1.15601   1.04658
    3  C   1.06455   1.02259   1.09348   1.13836
    4  C   1.09399   0.74328   1.05470   1.11309
    5  O   1.86536   1.31053   1.62486   1.64266
    6  C   1.11192   0.84411   0.70529   0.70948
    7  O   1.87632   1.72594   1.47334   1.43726
    8  C   1.06037   1.04463   1.20607   1.20148
    9  H   0.85961
   10  H   0.85778
   11  H   0.84957
   12  H   0.86291
   13  H   0.86642
   14  H   0.83704
   15  H   0.85372
   16  H   0.86168
   17  H   0.85988
   18  H   0.81519
   19  H   0.81596
   20  H   0.81488

 **********************
 *                    *
 * JOB ENDED NORMALLY *
 *                    *
 **********************



 TOTAL JOB TIME:             0.34 SECONDS

 == MOPAC DONE ==
