 *******************************************************************************
 **                                                                           **
 **                              MOPAC v23.0.3                                **
 **                                                                           **
 *******************************************************************************
 **          Digital Object Identifier (DOI): 10.5281/zenodo.6511958          **
 **    Visit the DOI location for information on how to cite this program.    **
 *******************************************************************************

                              PM7 CALCULATION RESULTS

 *******************************************************************************
 *  CALCULATION DONE:                                Fri Jul 25 15:23:24 2025  *
 *  PM7        - The PM7 Hamiltonian to be used
 *  XYZ        - CARTESIAN COORDINATE SYSTEM TO BE USED
 *  T=         - A TIME OF 172800.0 SECONDS REQUESTED
 *  DUMP=N     - RESTART FILE WRITTEN EVERY 7200.0 SECONDS REQUESTED
 *******************************************************************************
PM7 XYZ

 freesolv_313 - geometry optimisation
   ATOM   CHEMICAL          X               Y               Z
  NUMBER   SYMBOL      (ANGSTROMS)     (ANGSTROMS)     (ANGSTROMS)

     1       C          3.62358900  *  -0.76523400  *  -0.35788900  *
     2       N          2.27678000  *  -0.44291000  *   0.12028000  *
     3       C          2.09923800  *   0.41305500  *   1.29852200  *
     4       C          1.14410600  *  -1.10235100  *  -0.48077900  *
     5       O          1.29770900  *  -2.23183300  *  -1.02133800  *
     6       C         -0.20386000  *  -0.49496000  *  -0.47392000  *
     7       C         -1.33211100  *  -1.29158700  *  -0.22768000  *
     8       C         -2.61174400  *  -0.72875100  *  -0.23525700  *
     9       C         -2.78814900  *   0.63959300  *  -0.50354300  *
    10       C         -1.65649800  *   1.43088900  *  -0.77174900  *
    11       C         -0.37757700  *   0.86682000  *  -0.76291600  *
    12       N         -4.10689800  *   1.21636600  *  -0.51067600  *
    13       O         -4.26959700  *   2.43115700  *  -0.74918100  *
    14       O         -5.21198500  *   0.43803300  *  -0.25203000  *
    15       H          3.84692800  *  -1.83541300  *  -0.16301200  *
    16       H          3.68780300  *  -0.57078500  *  -1.44938600  *
    17       H          4.39460100  *  -0.14488900  *   0.14597700  *
    18       H          1.39624000  *  -0.06632100  *   2.01259900  *
    19       H          1.70187000  *   1.40295400  *   0.99856500  *
    20       H          3.06089300  *   0.57507000  *   1.82952000  *
    21       H         -1.22147600  *  -2.34831200  *  -0.01666600  *
    22       H         -3.46287200  *  -1.36552900  *  -0.03182700  *
    23       H         -1.76052900  *   2.48464700  *  -0.99637700  *
    24       H          0.47353500  *   1.49029100  *  -1.00585400  *



          CARTESIAN COORDINATES 

    NO.       ATOM           X           Y           Z

     1         C          3.6236     -0.7652     -0.3579
     2         N          2.2768     -0.4429      0.1203
     3         C          2.0992      0.4131      1.2985
     4         C          1.1441     -1.1024     -0.4808
     5         O          1.2977     -2.2318     -1.0213
     6         C         -0.2039     -0.4950     -0.4739
     7         C         -1.3321     -1.2916     -0.2277
     8         C         -2.6117     -0.7288     -0.2353
     9         C         -2.7881      0.6396     -0.5035
    10         C         -1.6565      1.4309     -0.7717
    11         C         -0.3776      0.8668     -0.7629
    12         N         -4.1069      1.2164     -0.5107
    13         O         -4.2696      2.4312     -0.7492
    14         O         -5.2120      0.4380     -0.2520
    15         H          3.8469     -1.8354     -0.1630
    16         H          3.6878     -0.5708     -1.4494
    17         H          4.3946     -0.1449      0.1460
    18         H          1.3962     -0.0663      2.0126
    19         H          1.7019      1.4030      0.9986
    20         H          3.0609      0.5751      1.8295
    21         H         -1.2215     -2.3483     -0.0167
    22         H         -3.4629     -1.3655     -0.0318
    23         H         -1.7605      2.4846     -0.9964
    24         H          0.4735      1.4903     -1.0059

 General Reference for PM7:
 "Optimization of Parameters for Semiempirical Methods VI: More Modifications to the 
 NDDO Approximations and Re-optimization of Parameters", J. J. P. Stewart, J. Mol. Mod., 1:32, 19 (2013)
 https://link.springer.com/article/10.1007/s00894-012-1667-x

           Empirical Formula: C9 H10 N2 O3  =    24 atoms



      MOLECULAR POINT GROUP   :   C1  


      RHF CALCULATION, NO. OF DOUBLY OCCUPIED LEVELS = 37


          Geometry optimization using EF

          DIAGONAL MATRIX USED AS START HESSIAN

 CYCLE:     1 TIME:   0.035 TIME LEFT:  2.00D  GRAD.:   277.007 HEAT:  4.079987
 CYCLE:     2 TIME:   0.012 TIME LEFT:  2.00D  GRAD.:   268.103 HEAT: -7.738405
 CYCLE:     3 TIME:   0.023 TIME LEFT:  2.00D  GRAD.:   174.445 HEAT: -13.25597
 CYCLE:     4 TIME:   0.012 TIME LEFT:  2.00D  GRAD.:   141.895 HEAT: -14.40890
 CYCLE:     5 TIME:   0.078 TIME LEFT:  2.00D  GRAD.:   134.745 HEAT: -16.57059
 CYCLE:     6 TIME:   0.020 TIME LEFT:  2.00D  GRAD.:    79.438 HEAT: -18.48658
 CYCLE:     7 TIME:   0.008 TIME LEFT:  2.00D  GRAD.:    69.332 HEAT: -18.66068
 CYCLE:     8 TIME:   0.012 TIME LEFT:  2.00D  GRAD.:    73.961 HEAT: -18.74971
 CYCLE:     9 TIME:   0.012 TIME LEFT:  2.00D  GRAD.:    64.408 HEAT: -19.26797
 CYCLE:    10 TIME:   0.020 TIME LEFT:  2.00D  GRAD.:    25.545 HEAT: -19.91104
 CYCLE:    11 TIME:   0.020 TIME LEFT:  2.00D  GRAD.:    24.724 HEAT: -20.00231
 CYCLE:    12 TIME:   0.008 TIME LEFT:  2.00D  GRAD.:    11.397 HEAT: -20.16502
 CYCLE:    13 TIME:   0.008 TIME LEFT:  2.00D  GRAD.:    17.014 HEAT: -20.27628
 CYCLE:    14 TIME:   0.012 TIME LEFT:  2.00D  GRAD.:    23.050 HEAT: -20.38102
 CYCLE:    15 TIME:   0.012 TIME LEFT:  2.00D  GRAD.:    17.728 HEAT: -20.59232
 CYCLE:    16 TIME:   0.016 TIME LEFT:  2.00D  GRAD.:    21.711 HEAT: -20.62606
 CYCLE:    17 TIME:   0.012 TIME LEFT:  2.00D  GRAD.:    19.970 HEAT: -20.72883
 CYCLE:    18 TIME:   0.016 TIME LEFT:  2.00D  GRAD.:    11.330 HEAT: -20.81361
 CYCLE:    19 TIME:   0.020 TIME LEFT:  2.00D  GRAD.:    10.975 HEAT: -20.83680
 CYCLE:    20 TIME:   0.012 TIME LEFT:  2.00D  GRAD.:     7.964 HEAT: -20.87110
 CYCLE:    21 TIME:   0.008 TIME LEFT:  2.00D  GRAD.:    12.085 HEAT: -20.89316
 CYCLE:    22 TIME:   0.008 TIME LEFT:  2.00D  GRAD.:     4.721 HEAT: -20.95429
 CYCLE:    23 TIME:   0.012 TIME LEFT:  2.00D  GRAD.:    17.796 HEAT: -20.96080
 CYCLE:    24 TIME:   0.008 TIME LEFT:  2.00D  GRAD.:     5.250 HEAT: -21.08898
 CYCLE:    25 TIME:   0.012 TIME LEFT:  2.00D  GRAD.:    16.047 HEAT: -21.14485
 CYCLE:    26 TIME:   0.012 TIME LEFT:  2.00D  GRAD.:    16.012 HEAT: -21.26142
 CYCLE:    27 TIME:   0.035 TIME LEFT:  2.00D  GRAD.:     7.556 HEAT: -21.31751
 CYCLE:    28 TIME:   0.008 TIME LEFT:  2.00D  GRAD.:     9.639 HEAT: -21.33874
 CYCLE:    29 TIME:   0.012 TIME LEFT:  2.00D  GRAD.:     9.086 HEAT: -21.38119
 CYCLE:    30 TIME:   0.020 TIME LEFT:  2.00D  GRAD.:     9.142 HEAT: -21.39163
 CYCLE:    31 TIME:   0.008 TIME LEFT:  2.00D  GRAD.:     5.729 HEAT: -21.43370
 CYCLE:    32 TIME:   0.012 TIME LEFT:  2.00D  GRAD.:     7.167 HEAT: -21.45926
 CYCLE:    33 TIME:   0.008 TIME LEFT:  2.00D  GRAD.:     5.306 HEAT: -21.50420
 CYCLE:    34 TIME:   0.012 TIME LEFT:  2.00D  GRAD.:     7.824 HEAT: -21.56080
 CYCLE:    35 TIME:   0.008 TIME LEFT:  2.00D  GRAD.:     8.285 HEAT: -21.65695
 CYCLE:    36 TIME:   0.012 TIME LEFT:  2.00D  GRAD.:     8.515 HEAT: -21.82477
 CYCLE:    37 TIME:   0.008 TIME LEFT:  2.00D  GRAD.:    14.860 HEAT: -21.98284
 CYCLE:    38 TIME:   0.012 TIME LEFT:  2.00D  GRAD.:    11.502 HEAT: -22.22828
 CYCLE:    39 TIME:   0.047 TIME LEFT:  2.00D  GRAD.:     8.878 HEAT: -22.26353
 CYCLE:    40 TIME:   0.012 TIME LEFT:  2.00D  GRAD.:     5.117 HEAT: -22.31047
 CYCLE:    41 TIME:   0.008 TIME LEFT:  2.00D  GRAD.:     5.840 HEAT: -22.34058
 CYCLE:    42 TIME:   0.012 TIME LEFT:  2.00D  GRAD.:     6.196 HEAT: -22.38729
 CYCLE:    43 TIME:   0.008 TIME LEFT:  2.00D  GRAD.:     5.924 HEAT: -22.44825
 CYCLE:    44 TIME:   0.012 TIME LEFT:  2.00D  GRAD.:     4.899 HEAT: -22.55633
 CYCLE:    45 TIME:   0.012 TIME LEFT:  2.00D  GRAD.:     9.426 HEAT: -22.71366
 CYCLE:    46 TIME:   0.012 TIME LEFT:  2.00D  GRAD.:    15.017 HEAT: -22.81320
 CYCLE:    47 TIME:   0.008 TIME LEFT:  2.00D  GRAD.:    11.409 HEAT: -22.95085
 CYCLE:    48 TIME:   0.047 TIME LEFT:  2.00D  GRAD.:     7.702 HEAT: -22.99498
 CYCLE:    49 TIME:   0.008 TIME LEFT:  2.00D  GRAD.:     7.669 HEAT: -23.00390
 CYCLE:    50 TIME:   0.012 TIME LEFT:  2.00D  GRAD.:     4.398 HEAT: -23.03387
 CYCLE:    51 TIME:   0.008 TIME LEFT:  2.00D  GRAD.:     3.757 HEAT: -23.05325
 CYCLE:    52 TIME:   0.012 TIME LEFT:  2.00D  GRAD.:     3.136 HEAT: -23.07906
 CYCLE:    53 TIME:   0.008 TIME LEFT:  2.00D  GRAD.:     3.379 HEAT: -23.12218
 CYCLE:    54 TIME:   0.012 TIME LEFT:  2.00D  GRAD.:     3.694 HEAT: -23.18788
 CYCLE:    55 TIME:   0.012 TIME LEFT:  2.00D  GRAD.:     5.555 HEAT: -23.24629
 CYCLE:    56 TIME:   0.012 TIME LEFT:  2.00D  GRAD.:     7.780 HEAT: -23.26641
 CYCLE:    57 TIME:   0.008 TIME LEFT:  2.00D  GRAD.:     7.500 HEAT: -23.28891
 CYCLE:    58 TIME:   0.012 TIME LEFT:  2.00D  GRAD.:     8.830 HEAT: -23.31778
 CYCLE:    59 TIME:   0.012 TIME LEFT:  2.00D  GRAD.:     4.621 HEAT: -23.34055
 CYCLE:    60 TIME:   0.008 TIME LEFT:  2.00D  GRAD.:     6.655 HEAT: -23.36446
 CYCLE:    61 TIME:   0.012 TIME LEFT:  2.00D  GRAD.:     7.496 HEAT: -23.37844
 CYCLE:    62 TIME:   0.008 TIME LEFT:  2.00D  GRAD.:     4.206 HEAT: -23.41029
 CYCLE:    63 TIME:   0.012 TIME LEFT:  2.00D  GRAD.:     6.896 HEAT: -23.43381
 CYCLE:    64 TIME:   0.012 TIME LEFT:  2.00D  GRAD.:     5.599 HEAT: -23.46822
 CYCLE:    65 TIME:   0.008 TIME LEFT:  2.00D  GRAD.:     5.629 HEAT: -23.50150
 CYCLE:    66 TIME:   0.012 TIME LEFT:  2.00D  GRAD.:     2.952 HEAT: -23.53364
 CYCLE:    67 TIME:   0.012 TIME LEFT:  2.00D  GRAD.:     5.126 HEAT: -23.54513
 CYCLE:    68 TIME:   0.008 TIME LEFT:  2.00D  GRAD.:     2.686 HEAT: -23.55749
 CYCLE:    69 TIME:   0.012 TIME LEFT:  2.00D  GRAD.:     2.149 HEAT: -23.56380
 CYCLE:    70 TIME:   0.012 TIME LEFT:  2.00D  GRAD.:     2.319 HEAT: -23.57519
 CYCLE:    71 TIME:   0.012 TIME LEFT:  2.00D  GRAD.:     2.761 HEAT: -23.58327
 CYCLE:    72 TIME:   0.008 TIME LEFT:  2.00D  GRAD.:     2.070 HEAT: -23.59040
 CYCLE:    73 TIME:   0.012 TIME LEFT:  2.00D  GRAD.:     1.234 HEAT: -23.59412
 CYCLE:    74 TIME:   0.012 TIME LEFT:  2.00D  GRAD.:     1.283 HEAT: -23.60206
 CYCLE:    75 TIME:   0.012 TIME LEFT:  2.00D  GRAD.:     1.505 HEAT: -23.60825
 CYCLE:    76 TIME:   0.008 TIME LEFT:  2.00D  GRAD.:     2.021 HEAT: -23.61177
 CYCLE:    77 TIME:   0.012 TIME LEFT:  2.00D  GRAD.:     1.514 HEAT: -23.61526
 CYCLE:    78 TIME:   0.012 TIME LEFT:  2.00D  GRAD.:     1.474 HEAT: -23.62044
 CYCLE:    79 TIME:   0.008 TIME LEFT:  2.00D  GRAD.:     1.551 HEAT: -23.62491
 CYCLE:    80 TIME:   0.012 TIME LEFT:  2.00D  GRAD.:     2.855 HEAT: -23.62767
 CYCLE:    81 TIME:   0.012 TIME LEFT:  2.00D  GRAD.:     1.582 HEAT: -23.63502
 CYCLE:    82 TIME:   0.008 TIME LEFT:  2.00D  GRAD.:     0.884 HEAT: -23.63687

     GRADIENT =  0.88363 IS LESS THAN CUTOFF =  1.00000



 -------------------------------------------------------------------------------
 PM7 XYZ

 freesolv_313 - geometry optimisation


     GEOMETRY OPTIMISED USING EIGENVECTOR FOLLOWING (EF).     
     SCF FIELD WAS ACHIEVED                                   


                              PM7 CALCULATION
                                                       MOPAC v23.0.3 Linux
                                                       Fri Jul 25 15:23:25 2025




          FINAL HEAT OF FORMATION =        -23.63688 KCAL/MOL =     -98.89670 KJ/MOL


          COSMO AREA              =        216.59 SQUARE ANGSTROMS
          COSMO VOLUME            =        224.94 CUBIC ANGSTROMS

          GRADIENT NORM           =          0.88363          =       0.18037 PER ATOM
          IONIZATION POTENTIAL    =          9.691322 EV
          HOMO LUMO ENERGIES (EV) =         -9.691 -1.549
          NO. OF FILLED LEVELS    =         37
          MOLECULAR WEIGHT        =        194.1896         POINT GROUP:  C1  

          MOLECULAR DIMENSIONS (Angstroms)

            Atom       Atom       Distance
            H    17    O    14     9.23392
            H    21    H    23     4.79998
            H    20    O     5     4.10609


          SCF CALCULATIONS        =        102

          WALL-CLOCK TIME         =      1.121 SECONDS
          COMPUTATION TIME        =     22.246 SECONDS




   ATOM   CHEMICAL          X               Y               Z
  NUMBER   SYMBOL      (ANGSTROMS)     (ANGSTROMS)     (ANGSTROMS)

     1       C          3.49168272  *  -1.07901960  *   0.12118945  *
     2       N          2.15872369  *  -0.47497891  *   0.10974194  *
     3       C          1.77607786  *   0.28834159  *   1.29695290  *
     4       C          1.22023546  *  -0.92896837  *  -0.79056087  *
     5       O          1.52239329  *  -1.70674745  *  -1.67356141  *
     6       C         -0.16272001  *  -0.37298400  *  -0.66950731  *
     7       C         -1.17284818  *  -1.18609171  *  -0.15776524  *
     8       C         -2.46867319  *  -0.68812040  *  -0.05396824  *
     9       C         -2.72472952  *   0.62071547  *  -0.47087350  *
    10       C         -1.72013849  *   1.43164847  *  -1.00650871  *
    11       C         -0.42891091  *   0.92407316  *  -1.10747670  *
    12       N         -4.07441429  *   1.15545605  *  -0.34523426  *
    13       O         -4.26891778  *   2.31159911  *  -0.68359071  *
    14       O         -4.94476971  *   0.42461721  *   0.09870943  *
    15       H          3.60991828  *  -1.79120087  *   0.95482970  *
    16       H          3.67603105  *  -1.62994222  *  -0.82433168  *
    17       H          4.26069026  *  -0.29211474  *   0.20376348  *
    18       H          1.08594012  *  -0.27755057  *   1.94741087  *
    19       H          1.28349000  *   1.23364512  *   1.00182569  *
    20       H          2.66349489  *   0.55528229  *   1.89631168  *
    21       H         -0.95187996  *  -2.21037859  *   0.14814165  *
    22       H         -3.27590751  *  -1.31063035  *   0.34625197  *
    23       H         -1.94825392  *   2.44959351  *  -1.33979411  *
    24       H          0.37032467  *   1.53395827  *  -1.53239463  *

                             CARTESIAN COORDINATES

   1    C        3.491682725    -1.079019598     0.121189453
   2    N        2.158723687    -0.474978914     0.109741939
   3    C        1.776077861     0.288341595     1.296952904
   4    C        1.220235463    -0.928968370    -0.790560871
   5    O        1.522393293    -1.706747447    -1.673561415
   6    C       -0.162720011    -0.372984005    -0.669507311
   7    C       -1.172848181    -1.186091710    -0.157765242
   8    C       -2.468673193    -0.688120404    -0.053968238
   9    C       -2.724729524     0.620715468    -0.470873503
  10    C       -1.720138486     1.431648470    -1.006508705
  11    C       -0.428910910     0.924073165    -1.107476696
  12    N       -4.074414287     1.155456048    -0.345234257
  13    O       -4.268917778     2.311599107    -0.683590706
  14    O       -4.944769709     0.424617212     0.098709434
  15    H        3.609918281    -1.791200865     0.954829695
  16    H        3.676031051    -1.629942218    -0.824331682
  17    H        4.260690258    -0.292114738     0.203763481
  18    H        1.085940120    -0.277550570     1.947410866
  19    H        1.283489997     1.233645118     1.001825692
  20    H        2.663494887     0.555282286     1.896311680
  21    H       -0.951879964    -2.210378592     0.148141654
  22    H       -3.275907513    -1.310630351     0.346251970
  23    H       -1.948253917     2.449593513    -1.339794112
  24    H        0.370324674     1.533958271    -1.532394626


           Empirical Formula: C9 H10 N2 O3  =    24 atoms



      MOLECULAR POINT GROUP   :   C1  


                  EIGENVALUES  
 -37.35008 -37.01234 -31.74362 -30.75210 -30.54518 -28.01021 -27.01153 -25.97965
 -25.22759 -24.26201 -22.22427 -21.86315 -20.24466 -19.28637 -18.08396 -17.96429
 -17.40194 -16.79161 -16.74737 -16.03880 -15.89328 -15.35279 -15.28678 -14.36735
 -14.30615 -14.01946 -13.76670 -13.65000 -13.33140 -12.94470 -11.43999 -11.39099
 -11.23173 -11.03720 -10.88903 -10.65354  -9.69132  -1.54941  -0.78633   0.22312
   0.57821   0.79427   1.30840   1.60209   2.68013   3.09593   3.51601   3.79636
   3.85020   3.91957   4.06727   4.16457   4.41497   4.70023   4.72097   4.85878
   4.88471   4.94203   5.06417   5.23022   5.25462   5.29977   5.31123   5.32609
   5.64939   6.01233


              NET ATOMIC CHARGES AND DIPOLE CONTRIBUTIONS

  ATOM NO.   TYPE          CHARGE      No. of ELECS.   s-Pop       p-Pop       
    1          C          -0.228800        4.2288     1.05931     3.16949
    2          N          -0.459619        5.4596     1.56703     3.89259
    3          C          -0.234096        4.2341     1.05834     3.17576
    4          C           0.546943        3.4531     1.07367     2.37939
    5          O          -0.504688        6.5047     1.88223     4.62245
    6          C          -0.051148        4.0511     1.08542     2.96573
    7          C          -0.144733        4.1447     1.08360     3.06113
    8          C          -0.084923        4.0849     1.09149     2.99343
    9          C          -0.068034        4.0680     1.07883     2.98920
   10          C          -0.086959        4.0870     1.09116     2.99579
   11          C          -0.149987        4.1500     1.08325     3.06673
   12          N           0.618162        4.3818     1.45258     2.92926
   13          O          -0.396341        6.3963     1.94166     4.45468
   14          O          -0.394636        6.3946     1.94166     4.45298
   15          H           0.137503        0.8625     0.86250
   16          H           0.180217        0.8198     0.81978
   17          H           0.144796        0.8552     0.85520
   18          H           0.142162        0.8578     0.85784
   19          H           0.152145        0.8479     0.84785
   20          H           0.154223        0.8458     0.84578
   21          H           0.175029        0.8250     0.82497
   22          H           0.189686        0.8103     0.81031
   23          H           0.189116        0.8109     0.81088
   24          H           0.173983        0.8260     0.82602
 DIPOLE           X         Y         Z       TOTAL
 POINT-CHG.     5.034     0.344     3.372     6.069
 HYBRID        -0.332    -0.057    -0.001     0.337
 SUM            4.703     0.287     3.370     5.793


          ATOMIC ORBITAL ELECTRON POPULATIONS

     Atom    s        px        py        pz   
    1  C   1.05931   0.87570   1.10875   1.18503
    2  N   1.56703   1.15042   1.47221   1.26996
    3  C   1.05834   1.15331   1.07346   0.94899
    4  C   1.07367   0.82532   0.76787   0.78619
    5  O   1.88223   1.80162   1.40662   1.41421
    6  C   1.08542   1.00317   0.98993   0.97262
    7  C   1.08360   0.97624   1.07735   1.00754
    8  C   1.09149   1.04202   0.99243   0.95898
    9  C   1.07883   0.88946   1.00197   1.09777
   10  C   1.09116   0.96934   1.07259   0.95387
   11  C   1.08325   1.04184   1.01029   1.01461
   12  N   1.45258   1.00536   0.97558   0.94832
   13  O   1.94166   1.88910   1.04100   1.52458
   14  O   1.94166   1.44427   1.53627   1.47243
   15  H   0.86250
   16  H   0.81978
   17  H   0.85520
   18  H   0.85784
   19  H   0.84785
   20  H   0.84578
   21  H   0.82497
   22  H   0.81031
   23  H   0.81088
   24  H   0.82602

 **********************
 *                    *
 * JOB ENDED NORMALLY *
 *                    *
 **********************



 TOTAL JOB TIME:             1.12 SECONDS

 == MOPAC DONE ==
