 *******************************************************************************
 **                                                                           **
 **                              MOPAC v23.0.3                                **
 **                                                                           **
 *******************************************************************************
 **          Digital Object Identifier (DOI): 10.5281/zenodo.6511958          **
 **    Visit the DOI location for information on how to cite this program.    **
 *******************************************************************************

                              PM7 CALCULATION RESULTS

 *******************************************************************************
 *  CALCULATION DONE:                                Fri Jul 25 15:24:19 2025  *
 *  PM7        - The PM7 Hamiltonian to be used
 *  XYZ        - CARTESIAN COORDINATE SYSTEM TO BE USED
 *  T=         - A TIME OF 172800.0 SECONDS REQUESTED
 *  DUMP=N     - RESTART FILE WRITTEN EVERY 7200.0 SECONDS REQUESTED
 *******************************************************************************
PM7 XYZ

 freesolv_39 - geometry optimisation
   ATOM   CHEMICAL          X               Y               Z
  NUMBER   SYMBOL      (ANGSTROMS)     (ANGSTROMS)     (ANGSTROMS)

     1       C          2.78206900  *  -0.63759800  *  -0.14505900  *
     2       O          1.95556200  *   0.52158200  *  -0.16992100  *
     3       C          0.56009200  *   0.50268700  *  -0.02749000  *
     4       C         -0.12939400  *   1.72092800  *  -0.07167200  *
     5       C         -1.51995700  *   1.75410400  *   0.06540600  *
     6       C         -2.23434900  *   0.56770800  *   0.24813400  *
     7       C         -1.56090700  *  -0.65688000  *   0.29452500  *
     8       C         -0.16521900  *  -0.69164100  *   0.15707700  *
     9       O         -2.28598500  *  -1.83235000  *   0.47731200  *
    10       H          3.83966900  *  -0.33170700  *  -0.28021300  *
    11       H          2.68389500  *  -1.15568700  *   0.83227700  *
    12       H          2.50203400  *  -1.32405000  *  -0.97186200  *
    13       H          0.41575100  *   2.64562100  *  -0.21291600  *
    14       H         -2.04408000  *   2.70045000  *   0.02992700  *
    15       H         -3.31133500  *   0.59934700  *   0.35374600  *
    16       H          0.34146100  *  -1.64636300  *   0.19509500  *
    17       H         -1.82930800  *  -2.73615200  *   0.51562500  *



          CARTESIAN COORDINATES 

    NO.       ATOM           X           Y           Z

     1         C          2.7821     -0.6376     -0.1451
     2         O          1.9556      0.5216     -0.1699
     3         C          0.5601      0.5027     -0.0275
     4         C         -0.1294      1.7209     -0.0717
     5         C         -1.5200      1.7541      0.0654
     6         C         -2.2343      0.5677      0.2481
     7         C         -1.5609     -0.6569      0.2945
     8         C         -0.1652     -0.6916      0.1571
     9         O         -2.2860     -1.8323      0.4773
    10         H          3.8397     -0.3317     -0.2802
    11         H          2.6839     -1.1557      0.8323
    12         H          2.5020     -1.3241     -0.9719
    13         H          0.4158      2.6456     -0.2129
    14         H         -2.0441      2.7005      0.0299
    15         H         -3.3113      0.5993      0.3537
    16         H          0.3415     -1.6464      0.1951
    17         H         -1.8293     -2.7362      0.5156

 General Reference for PM7:
 "Optimization of Parameters for Semiempirical Methods VI: More Modifications to the 
 NDDO Approximations and Re-optimization of Parameters", J. J. P. Stewart, J. Mol. Mod., 1:32, 19 (2013)
 https://link.springer.com/article/10.1007/s00894-012-1667-x

           Empirical Formula: C7 H8 O2  =    17 atoms



      MOLECULAR POINT GROUP   :   Cs  


      RHF CALCULATION, NO. OF DOUBLY OCCUPIED LEVELS = 24


          Geometry optimization using EF

          DIAGONAL MATRIX USED AS START HESSIAN

 CYCLE:     1 TIME:   0.008 TIME LEFT:  2.00D  GRAD.:    93.183 HEAT: -53.06753
 CYCLE:     2 TIME:   0.012 TIME LEFT:  2.00D  GRAD.:    96.328 HEAT: -56.11390
 CYCLE:     3 TIME:   0.008 TIME LEFT:  2.00D  GRAD.:    78.763 HEAT: -59.17358
 CYCLE:     4 TIME:   0.008 TIME LEFT:  2.00D  GRAD.:    60.133 HEAT: -60.66266
 CYCLE:     5 TIME:   0.004 TIME LEFT:  2.00D  GRAD.:    59.358 HEAT: -61.33998
 CYCLE:     6 TIME:   0.008 TIME LEFT:  2.00D  GRAD.:    53.790 HEAT: -61.85470
 CYCLE:     7 TIME:   0.004 TIME LEFT:  2.00D  GRAD.:    54.842 HEAT: -62.08698
 CYCLE:     8 TIME:   0.012 TIME LEFT:  2.00D  GRAD.:    26.165 HEAT: -62.84208
 CYCLE:     9 TIME:   0.012 TIME LEFT:  2.00D  GRAD.:    22.210 HEAT: -62.97737
 CYCLE:    10 TIME:   0.008 TIME LEFT:  2.00D  GRAD.:     9.364 HEAT: -63.08974
 CYCLE:    11 TIME:   0.012 TIME LEFT:  2.00D  GRAD.:     8.491 HEAT: -63.12345
 CYCLE:    12 TIME:   0.004 TIME LEFT:  2.00D  GRAD.:     8.806 HEAT: -63.14763
 CYCLE:    13 TIME:   0.004 TIME LEFT:  2.00D  GRAD.:     8.454 HEAT: -63.17917
 CYCLE:    14 TIME:   0.004 TIME LEFT:  2.00D  GRAD.:     8.249 HEAT: -63.21191
 CYCLE:    15 TIME:   0.012 TIME LEFT:  2.00D  GRAD.:    11.224 HEAT: -63.21457
 CYCLE:    16 TIME:   0.008 TIME LEFT:  2.00D  GRAD.:     5.673 HEAT: -63.23785
 CYCLE:    17 TIME:   0.012 TIME LEFT:  2.00D  GRAD.:     4.395 HEAT: -63.24236
 CYCLE:    18 TIME:   0.008 TIME LEFT:  2.00D  GRAD.:     2.258 HEAT: -63.24816
 CYCLE:    19 TIME:   0.016 TIME LEFT:  2.00D  GRAD.:     7.875 HEAT: -63.23953
 CYCLE:    20 TIME:   0.012 TIME LEFT:  2.00D  GRAD.:     4.004 HEAT: -63.25047
 CYCLE:    21 TIME:   0.023 TIME LEFT:  2.00D  GRAD.:     2.331 HEAT: -63.25393
 CYCLE:    22 TIME:   0.012 TIME LEFT:  2.00D  GRAD.:     2.106 HEAT: -63.25460
 CYCLE:    23 TIME:   0.008 TIME LEFT:  2.00D  GRAD.:     2.228 HEAT: -63.25729
 CYCLE:    24 TIME:   0.012 TIME LEFT:  2.00D  GRAD.:     2.817 HEAT: -63.25737
 CYCLE:    25 TIME:   0.008 TIME LEFT:  2.00D  GRAD.:     1.743 HEAT: -63.26076
 CYCLE:    26 TIME:   0.008 TIME LEFT:  2.00D  GRAD.:     4.707 HEAT: -63.25433
 CYCLE:    27 TIME:   0.012 TIME LEFT:  2.00D  GRAD.:     0.848 HEAT: -63.26348

     GRADIENT =  0.84847 IS LESS THAN CUTOFF =  1.00000



 -------------------------------------------------------------------------------
 PM7 XYZ

 freesolv_39 - geometry optimisation


     GEOMETRY OPTIMISED USING EIGENVECTOR FOLLOWING (EF).     
     SCF FIELD WAS ACHIEVED                                   


                              PM7 CALCULATION
                                                       MOPAC v23.0.3 Linux
                                                       Fri Jul 25 15:24:19 2025




          FINAL HEAT OF FORMATION =        -63.26349 KCAL/MOL =    -264.69442 KJ/MOL


          COSMO AREA              =        158.38 SQUARE ANGSTROMS
          COSMO VOLUME            =        151.83 CUBIC ANGSTROMS

          GRADIENT NORM           =          0.84847          =       0.20579 PER ATOM
          IONIZATION POTENTIAL    =          8.920574 EV
          HOMO LUMO ENERGIES (EV) =         -8.921  0.133
          NO. OF FILLED LEVELS    =         24
          MOLECULAR WEIGHT        =        124.1390         POINT GROUP:  Cs  

          MOLECULAR DIMENSIONS (Angstroms)

            Atom       Atom       Distance
            H    15    H    10     7.06369
            H    17    H    13     5.44443
            H    12    H    11     1.81023


          SCF CALCULATIONS        =         40

          WALL-CLOCK TIME         =      0.273 SECONDS
          COMPUTATION TIME        =      2.379 SECONDS




   ATOM   CHEMICAL          X               Y               Z
  NUMBER   SYMBOL      (ANGSTROMS)     (ANGSTROMS)     (ANGSTROMS)

     1       C          2.67977300  *  -0.62072897  *  -0.13636953  *
     2       O          1.90627489  *   0.57085355  *  -0.16933070  *
     3       C          0.56347361  *   0.45226223  *  -0.02308661  *
     4       C         -0.09866457  *   1.69085608  *  -0.07202077  *
     5       C         -1.48096121  *   1.72140056  *   0.06445729  *
     6       C         -2.21042763  *   0.54835793  *   0.24756023  *
     7       C         -1.51456036  *  -0.66221043  *   0.29040682  *
     8       C         -0.12492056  *  -0.74744307  *   0.15818577  *
     9       O         -2.28322001  *  -1.76523024  *   0.47088283  *
    10       H          3.70014568  *  -0.23698626  *  -0.27480544  *
    11       H          2.58730634  *  -1.11959224  *   0.83287931  *
    12       H          2.40676851  *  -1.28626111  *  -0.96060045  *
    13       H          0.47570951  *   2.60014875  *  -0.21489366  *
    14       H         -2.00439307  *   2.67837434  *   0.02778381  *
    15       H         -3.29015391  *   0.55946843  *   0.35534787  *
    16       H          0.37938574  *  -1.70063127  *   0.19619140  *
    17       H         -1.75224845  *  -2.59641511  *   0.49469028  *

                             CARTESIAN COORDINATES

   1    C        2.679773003    -0.620728973    -0.136369525
   2    O        1.906274894     0.570853549    -0.169330695
   3    C        0.563473612     0.452262230    -0.023086612
   4    C       -0.098664572     1.690856081    -0.072020767
   5    C       -1.480961212     1.721400562     0.064457287
   6    C       -2.210427628     0.548357933     0.247560233
   7    C       -1.514560362    -0.662210429     0.290406817
   8    C       -0.124920560    -0.747443067     0.158185770
   9    O       -2.283220008    -1.765230239     0.470882834
  10    H        3.700145682    -0.236986255    -0.274805438
  11    H        2.587306344    -1.119592238     0.832879308
  12    H        2.406768511    -1.286261107    -0.960600450
  13    H        0.475709514     2.600148754    -0.214893657
  14    H       -2.004393075     2.678374341     0.027783805
  15    H       -3.290153909     0.559468432     0.355347869
  16    H        0.379385741    -1.700631274     0.196191399
  17    H       -1.752248447    -2.596415114     0.494690278


           Empirical Formula: C7 H8 O2  =    17 atoms



      MOLECULAR POINT GROUP   :   Cs  


                  EIGENVALUES  
 -31.14081 -30.72032 -29.84565 -25.92935 -25.70202 -24.45306 -21.40443 -20.80523
 -18.66215 -17.54386 -16.31999 -16.08893 -15.79003 -14.94415 -14.60889 -14.48933
 -13.63897 -13.16263 -12.89956 -12.24532 -12.23388 -11.46226  -9.75781  -8.92057
   0.13308   0.41433   1.64644   2.37146   2.48253   3.84390   4.18498   4.39426
   4.72888   4.98173   5.06458   5.16967   5.29785   5.50757   5.69811   5.83100
   5.85767   6.12394   6.44315   6.52510


              NET ATOMIC CHARGES AND DIPOLE CONTRIBUTIONS

  ATOM NO.   TYPE          CHARGE      No. of ELECS.   s-Pop       p-Pop       
    1          C          -0.202202        4.2022     1.08738     3.11482
    2          O          -0.312511        6.3125     1.86480     4.44771
    3          C           0.323108        3.6769     1.08715     2.58974
    4          C          -0.328763        4.3288     1.07010     3.25866
    5          C          -0.011435        4.0114     1.08560     2.92584
    6          C          -0.325032        4.3250     1.06905     3.25598
    7          C           0.359346        3.6407     1.08063     2.56003
    8          C          -0.460721        4.4607     1.06782     3.39290
    9          O          -0.471478        6.4715     1.83685     4.63463
   10          H           0.154410        0.8456     0.84559
   11          H           0.135330        0.8647     0.86467
   12          H           0.135322        0.8647     0.86468
   13          H           0.175829        0.8242     0.82417
   14          H           0.151825        0.8482     0.84818
   15          H           0.179665        0.8203     0.82033
   16          H           0.170319        0.8297     0.82968
   17          H           0.326986        0.6730     0.67301
 DIPOLE           X         Y         Z       TOTAL
 POINT-CHG.     1.581    -1.241    -0.045     2.010
 HYBRID         0.277    -0.625     0.030     0.684
 SUM            1.858    -1.865    -0.014     2.633


          ATOMIC ORBITAL ELECTRON POPULATIONS

     Atom    s        px        py        pz   
    1  C   1.08738   1.02691   0.94288   1.14503
    2  O   1.86480   1.24179   1.34342   1.86250
    3  C   1.08715   0.79035   0.95696   0.84243
    4  C   1.07010   1.02004   1.05927   1.17935
    5  C   1.08560   0.98712   1.04643   0.89229
    6  C   1.06905   1.10283   0.97549   1.17767
    7  C   1.08063   0.88706   0.83028   0.84268
    8  C   1.06782   1.03010   1.08364   1.27916
    9  O   1.83685   1.45861   1.29030   1.88572
   10  H   0.84559
   11  H   0.86467
   12  H   0.86468
   13  H   0.82417
   14  H   0.84818
   15  H   0.82033
   16  H   0.82968
   17  H   0.67301

 **********************
 *                    *
 * JOB ENDED NORMALLY *
 *                    *
 **********************



 TOTAL JOB TIME:             0.28 SECONDS

 == MOPAC DONE ==
