 *******************************************************************************
 **                                                                           **
 **                              MOPAC v23.0.3                                **
 **                                                                           **
 *******************************************************************************
 **          Digital Object Identifier (DOI): 10.5281/zenodo.6511958          **
 **    Visit the DOI location for information on how to cite this program.    **
 *******************************************************************************

                              PM7 CALCULATION RESULTS

 *******************************************************************************
 *  CALCULATION DONE:                                Fri Jul 25 15:23:58 2025  *
 *  PM7        - The PM7 Hamiltonian to be used
 *  XYZ        - CARTESIAN COORDINATE SYSTEM TO BE USED
 *  T=         - A TIME OF 172800.0 SECONDS REQUESTED
 *  DUMP=N     - RESTART FILE WRITTEN EVERY 7200.0 SECONDS REQUESTED
 *******************************************************************************
PM7 XYZ

 freesolv_362 - geometry optimisation
   ATOM   CHEMICAL          X               Y               Z
  NUMBER   SYMBOL      (ANGSTROMS)     (ANGSTROMS)     (ANGSTROMS)

     1       C         -2.01406200  *   2.21637900  *  -2.25336200  *
     2       C         -1.01020600  *   1.09613500  *  -2.50272400  *
     3       O         -1.32241900  *  -0.02850800  *  -1.70174200  *
     4       C         -0.57319400  *  -0.02316800  *  -0.49970100  *
     5       O         -1.18006900  *  -0.90933300  *   0.42061100  *
     6       C         -2.32246500  *  -0.30747200  *   0.99388700  *
     7       C         -3.00787900  *  -1.31061200  *   1.90825700  *
     8       O          0.74506900  *  -0.49457500  *  -0.78065700  *
     9       C          1.79620100  *  -0.54545400  *   0.14840600  *
    10       C          3.03095800  *  -1.05453800  *  -0.27485700  *
    11       C          4.11028800  *  -1.12677500  *   0.61110900  *
    12       C          3.96365200  *  -0.68930500  *   1.92967900  *
    13       C          2.73765900  *  -0.17870200  *   2.36341300  *
    14       C          1.65569500  *  -0.10456700  *   1.48022300  *
    15       H         -1.80274300  *   3.06681200  *  -2.93528200  *
    16       H         -3.04547400  *   1.85069700  *  -2.44298800  *
    17       H         -1.94321500  *   2.57359600  *  -1.20480400  *
    18       H          0.03000400  *   1.47310800  *  -2.35821600  *
    19       H         -1.08936100  *   0.79136600  *  -3.56756300  *
    20       H         -0.49382500  *   1.00712200  *  -0.06826600  *
    21       H         -2.03382600  *   0.57795200  *   1.60442500  *
    22       H         -3.04998300  *   0.00377100  *   0.20983500  *
    23       H         -3.90565600  *  -0.84701200  *   2.36900500  *
    24       H         -2.31197800  *  -1.62725100  *   2.71403700  *
    25       H         -3.32160900  *  -2.20280300  *   1.32582800  *
    26       H          3.15346600  *  -1.39576800  *  -1.29501900  *
    27       H          5.06024600  *  -1.52196500  *   0.27509800  *
    28       H          4.79959000  *  -0.74558600  *   2.61489200  *
    29       H          2.62538000  *   0.16046300  *   3.38516600  *
    30       H          0.71975700  *   0.29599200  *   1.84336900  *



          CARTESIAN COORDINATES 

    NO.       ATOM           X           Y           Z

     1         C         -2.0141      2.2164     -2.2534
     2         C         -1.0102      1.0961     -2.5027
     3         O         -1.3224     -0.0285     -1.7017
     4         C         -0.5732     -0.0232     -0.4997
     5         O         -1.1801     -0.9093      0.4206
     6         C         -2.3225     -0.3075      0.9939
     7         C         -3.0079     -1.3106      1.9083
     8         O          0.7451     -0.4946     -0.7807
     9         C          1.7962     -0.5455      0.1484
    10         C          3.0310     -1.0545     -0.2749
    11         C          4.1103     -1.1268      0.6111
    12         C          3.9637     -0.6893      1.9297
    13         C          2.7377     -0.1787      2.3634
    14         C          1.6557     -0.1046      1.4802
    15         H         -1.8027      3.0668     -2.9353
    16         H         -3.0455      1.8507     -2.4430
    17         H         -1.9432      2.5736     -1.2048
    18         H          0.0300      1.4731     -2.3582
    19         H         -1.0894      0.7914     -3.5676
    20         H         -0.4938      1.0071     -0.0683
    21         H         -2.0338      0.5780      1.6044
    22         H         -3.0500      0.0038      0.2098
    23         H         -3.9057     -0.8470      2.3690
    24         H         -2.3120     -1.6273      2.7140
    25         H         -3.3216     -2.2028      1.3258
    26         H          3.1535     -1.3958     -1.2950
    27         H          5.0602     -1.5220      0.2751
    28         H          4.7996     -0.7456      2.6149
    29         H          2.6254      0.1605      3.3852
    30         H          0.7198      0.2960      1.8434

 General Reference for PM7:
 "Optimization of Parameters for Semiempirical Methods VI: More Modifications to the 
 NDDO Approximations and Re-optimization of Parameters", J. J. P. Stewart, J. Mol. Mod., 1:32, 19 (2013)
 https://link.springer.com/article/10.1007/s00894-012-1667-x

           Empirical Formula: C11 H16 O3  =    30 atoms



      MOLECULAR POINT GROUP   :   C1  


      RHF CALCULATION, NO. OF DOUBLY OCCUPIED LEVELS = 39


          Geometry optimization using EF

          DIAGONAL MATRIX USED AS START HESSIAN

 CYCLE:     1 TIME:   0.031 TIME LEFT:  2.00D  GRAD.:    84.021 HEAT: -98.21634
 CYCLE:     2 TIME:   0.031 TIME LEFT:  2.00D  GRAD.:    80.663 HEAT: -100.5804
 CYCLE:     3 TIME:   0.016 TIME LEFT:  2.00D  GRAD.:   101.564 HEAT: -101.4482
 CYCLE:     4 TIME:   0.020 TIME LEFT:  2.00D  GRAD.:    94.494 HEAT: -102.2237
 CYCLE:     5 TIME:   0.016 TIME LEFT:  2.00D  GRAD.:   105.484 HEAT: -102.5609
 CYCLE:     6 TIME:   0.031 TIME LEFT:  2.00D  GRAD.:    34.468 HEAT: -104.8625
 CYCLE:     7 TIME:   0.027 TIME LEFT:  2.00D  GRAD.:    22.645 HEAT: -105.3574
 CYCLE:     8 TIME:   0.016 TIME LEFT:  2.00D  GRAD.:    39.212 HEAT: -105.4218
 CYCLE:     9 TIME:   0.012 TIME LEFT:  2.00D  GRAD.:    24.431 HEAT: -105.8349
 CYCLE:    10 TIME:   0.031 TIME LEFT:  2.00D  GRAD.:    20.657 HEAT: -106.0065
 CYCLE:    11 TIME:   0.016 TIME LEFT:  2.00D  GRAD.:    22.283 HEAT: -106.1427
 CYCLE:    12 TIME:   0.012 TIME LEFT:  2.00D  GRAD.:    15.729 HEAT: -106.3328
 CYCLE:    13 TIME:   0.016 TIME LEFT:  2.00D  GRAD.:    15.976 HEAT: -106.5306
 CYCLE:    14 TIME:   0.016 TIME LEFT:  2.00D  GRAD.:    31.063 HEAT: -106.5630
 CYCLE:    15 TIME:   0.016 TIME LEFT:  2.00D  GRAD.:    22.747 HEAT: -106.8416
 CYCLE:    16 TIME:   0.039 TIME LEFT:  2.00D  GRAD.:    13.331 HEAT: -106.9547
 CYCLE:    17 TIME:   0.016 TIME LEFT:  2.00D  GRAD.:     9.609 HEAT: -107.0227
 CYCLE:    18 TIME:   0.012 TIME LEFT:  2.00D  GRAD.:    12.569 HEAT: -107.0803
 CYCLE:    19 TIME:   0.016 TIME LEFT:  2.00D  GRAD.:    10.637 HEAT: -107.1611
 CYCLE:    20 TIME:   0.027 TIME LEFT:  2.00D  GRAD.:    13.488 HEAT: -107.1841
 CYCLE:    21 TIME:   0.016 TIME LEFT:  2.00D  GRAD.:     6.577 HEAT: -107.2634
 CYCLE:    22 TIME:   0.012 TIME LEFT:  2.00D  GRAD.:    12.958 HEAT: -107.2847
 CYCLE:    23 TIME:   0.016 TIME LEFT:  2.00D  GRAD.:     8.233 HEAT: -107.3714
 CYCLE:    24 TIME:   0.023 TIME LEFT:  2.00D  GRAD.:    11.535 HEAT: -107.3803
 CYCLE:    25 TIME:   0.016 TIME LEFT:  2.00D  GRAD.:     5.022 HEAT: -107.4500
 CYCLE:    26 TIME:   0.012 TIME LEFT:  2.00D  GRAD.:    13.626 HEAT: -107.4566
 CYCLE:    27 TIME:   0.016 TIME LEFT:  2.00D  GRAD.:     6.924 HEAT: -107.5651
 CYCLE:    28 TIME:   0.051 TIME LEFT:  2.00D  GRAD.:     4.642 HEAT: -107.5844
 CYCLE:    29 TIME:   0.016 TIME LEFT:  2.00D  GRAD.:     4.107 HEAT: -107.5991
 CYCLE:    30 TIME:   0.016 TIME LEFT:  2.00D  GRAD.:     4.250 HEAT: -107.6187
 CYCLE:    31 TIME:   0.012 TIME LEFT:  2.00D  GRAD.:     4.760 HEAT: -107.6437
 CYCLE:    32 TIME:   0.016 TIME LEFT:  2.00D  GRAD.:     4.242 HEAT: -107.6824
 CYCLE:    33 TIME:   0.012 TIME LEFT:  2.00D  GRAD.:     7.033 HEAT: -107.7184
 CYCLE:    34 TIME:   0.016 TIME LEFT:  2.00D  GRAD.:     6.518 HEAT: -107.7808
 CYCLE:    35 TIME:   0.012 TIME LEFT:  2.00D  GRAD.:    13.339 HEAT: -107.7974
 CYCLE:    36 TIME:   0.016 TIME LEFT:  2.00D  GRAD.:     8.139 HEAT: -107.8909
 CYCLE:    37 TIME:   0.047 TIME LEFT:  2.00D  GRAD.:     6.585 HEAT: -107.9105
 CYCLE:    38 TIME:   0.016 TIME LEFT:  2.00D  GRAD.:     7.034 HEAT: -107.9231
 CYCLE:    39 TIME:   0.012 TIME LEFT:  2.00D  GRAD.:     6.638 HEAT: -107.9361
 CYCLE:    40 TIME:   0.012 TIME LEFT:  2.00D  GRAD.:     5.654 HEAT: -107.9532
 CYCLE:    41 TIME:   0.012 TIME LEFT:  2.00D  GRAD.:     7.164 HEAT: -107.9642
 CYCLE:    42 TIME:   0.016 TIME LEFT:  2.00D  GRAD.:     6.597 HEAT: -107.9854
 CYCLE:    43 TIME:   0.012 TIME LEFT:  2.00D  GRAD.:     5.338 HEAT: -108.0137
 CYCLE:    44 TIME:   0.012 TIME LEFT:  2.00D  GRAD.:     4.930 HEAT: -108.0509
 CYCLE:    45 TIME:   0.016 TIME LEFT:  2.00D  GRAD.:    10.169 HEAT: -108.0804
 CYCLE:    46 TIME:   0.012 TIME LEFT:  2.00D  GRAD.:     9.375 HEAT: -108.1464
 CYCLE:    47 TIME:   0.016 TIME LEFT:  2.00D  GRAD.:    10.593 HEAT: -108.1849
 CYCLE:    48 TIME:   0.012 TIME LEFT:  2.00D  GRAD.:    12.525 HEAT: -108.2371
 CYCLE:    49 TIME:   0.016 TIME LEFT:  2.00D  GRAD.:    13.384 HEAT: -108.2486
 CYCLE:    50 TIME:   0.012 TIME LEFT:  2.00D  GRAD.:    13.184 HEAT: -108.3263
 CYCLE:    51 TIME:   0.039 TIME LEFT:  2.00D  GRAD.:     9.859 HEAT: -108.3615
 CYCLE:    52 TIME:   0.012 TIME LEFT:  2.00D  GRAD.:    11.221 HEAT: -108.3832
 CYCLE:    53 TIME:   0.012 TIME LEFT:  2.00D  GRAD.:     4.752 HEAT: -108.4351
 CYCLE:    54 TIME:   0.023 TIME LEFT:  2.00D  GRAD.:     7.882 HEAT: -108.4400
 CYCLE:    55 TIME:   0.012 TIME LEFT:  2.00D  GRAD.:     3.968 HEAT: -108.4715
 CYCLE:    56 TIME:   0.020 TIME LEFT:  2.00D  GRAD.:     8.930 HEAT: -108.4795
 CYCLE:    57 TIME:   0.016 TIME LEFT:  2.00D  GRAD.:     3.885 HEAT: -108.5343
 CYCLE:    58 TIME:   0.012 TIME LEFT:  2.00D  GRAD.:     6.592 HEAT: -108.5623
 CYCLE:    59 TIME:   0.016 TIME LEFT:  2.00D  GRAD.:     3.313 HEAT: -108.6236
 CYCLE:    60 TIME:   0.012 TIME LEFT:  2.00D  GRAD.:     4.071 HEAT: -108.6993
 CYCLE:    61 TIME:   0.016 TIME LEFT:  2.00D  GRAD.:     5.964 HEAT: -108.7757
 CYCLE:    62 TIME:   0.016 TIME LEFT:  2.00D  GRAD.:    10.193 HEAT: -108.7877
 CYCLE:    63 TIME:   0.016 TIME LEFT:  2.00D  GRAD.:     8.170 HEAT: -108.8954
 CYCLE:    64 TIME:   0.012 TIME LEFT:  2.00D  GRAD.:     5.552 HEAT: -108.9190
 CYCLE:    65 TIME:   0.016 TIME LEFT:  2.00D  GRAD.:     3.135 HEAT: -108.9635
 CYCLE:    66 TIME:   0.016 TIME LEFT:  2.00D  GRAD.:    13.714 HEAT: -108.9681
 CYCLE:    67 TIME:   0.012 TIME LEFT:  2.00D  GRAD.:     4.814 HEAT: -109.0428
 CYCLE:    68 TIME:   0.012 TIME LEFT:  2.00D  GRAD.:     3.107 HEAT: -109.0768
 CYCLE:    69 TIME:   0.016 TIME LEFT:  2.00D  GRAD.:    13.479 HEAT: -109.1516
 CYCLE:    70 TIME:   0.016 TIME LEFT:  2.00D  GRAD.:     7.213 HEAT: -109.2274
 CYCLE:    71 TIME:   0.012 TIME LEFT:  2.00D  GRAD.:     6.698 HEAT: -109.3717
 CYCLE:    72 TIME:   0.016 TIME LEFT:  2.00D  GRAD.:    10.698 HEAT: -109.4586
 CYCLE:    73 TIME:   0.016 TIME LEFT:  2.00D  GRAD.:     8.049 HEAT: -109.5419
 CYCLE:    74 TIME:   0.012 TIME LEFT:  2.00D  GRAD.:    12.477 HEAT: -109.6824
 CYCLE:    75 TIME:   0.039 TIME LEFT:  2.00D  GRAD.:     6.916 HEAT: -109.7537
 CYCLE:    76 TIME:   0.012 TIME LEFT:  2.00D  GRAD.:     4.107 HEAT: -109.8126
 CYCLE:    77 TIME:   0.012 TIME LEFT:  2.00D  GRAD.:     3.732 HEAT: -109.8904
 CYCLE:    78 TIME:   0.016 TIME LEFT:  2.00D  GRAD.:     6.195 HEAT: -110.0287
 CYCLE:    79 TIME:   0.016 TIME LEFT:  2.00D  GRAD.:    11.897 HEAT: -110.2283
 CYCLE:    80 TIME:   0.012 TIME LEFT:  2.00D  GRAD.:     9.388 HEAT: -110.3612
 CYCLE:    81 TIME:   0.016 TIME LEFT:  2.00D  GRAD.:    16.490 HEAT: -110.3914
 CYCLE:    82 TIME:   0.016 TIME LEFT:  2.00D  GRAD.:    12.879 HEAT: -110.4867
 CYCLE:    83 TIME:   0.012 TIME LEFT:  2.00D  GRAD.:     9.055 HEAT: -110.5696
 CYCLE:    84 TIME:   0.016 TIME LEFT:  2.00D  GRAD.:     7.159 HEAT: -110.6617
 CYCLE:    85 TIME:   0.016 TIME LEFT:  2.00D  GRAD.:    12.544 HEAT: -110.7162
 CYCLE:    86 TIME:   0.012 TIME LEFT:  2.00D  GRAD.:     9.470 HEAT: -110.8472
 CYCLE:    87 TIME:   0.016 TIME LEFT:  2.00D  GRAD.:    11.070 HEAT: -111.1624
 CYCLE:    88 TIME:   0.016 TIME LEFT:  2.00D  GRAD.:    25.304 HEAT: -111.6158
 CYCLE:    89 TIME:   0.012 TIME LEFT:  2.00D  GRAD.:    27.940 HEAT: -111.7280
 CYCLE:    90 TIME:   0.016 TIME LEFT:  2.00D  GRAD.:    27.070 HEAT: -112.2716
 CYCLE:    91 TIME:   0.016 TIME LEFT:  2.00D  GRAD.:    24.993 HEAT: -112.5468
 CYCLE:    92 TIME:   0.027 TIME LEFT:  2.00D  GRAD.:    25.356 HEAT: -112.9401
 CYCLE:    93 TIME:   0.012 TIME LEFT:  2.00D  GRAD.:    16.597 HEAT: -113.3609
 CYCLE:    94 TIME:   0.027 TIME LEFT:  2.00D  GRAD.:    19.874 HEAT: -113.6904
 CYCLE:    95 TIME:   0.016 TIME LEFT:  2.00D  GRAD.:    20.040 HEAT: -114.0612
 CYCLE:    96 TIME:   0.016 TIME LEFT:  2.00D  GRAD.:    28.328 HEAT: -114.1395
 CYCLE:    97 TIME:   0.012 TIME LEFT:  2.00D  GRAD.:    20.884 HEAT: -114.2995
 CYCLE:    98 TIME:   0.016 TIME LEFT:  2.00D  GRAD.:    16.638 HEAT: -114.5295
 CYCLE:    99 TIME:   0.012 TIME LEFT:  2.00D  GRAD.:    12.899 HEAT: -114.7063
 CYCLE:   100 TIME:   0.016 TIME LEFT:  2.00D  GRAD.:    10.705 HEAT: -114.8595
 CYCLE:   101 TIME:   0.012 TIME LEFT:  2.00D  GRAD.:    12.742 HEAT: -115.0505
 CYCLE:   102 TIME:   0.016 TIME LEFT:  2.00D  GRAD.:    12.342 HEAT: -115.2362
 CYCLE:   103 TIME:   0.012 TIME LEFT:  2.00D  GRAD.:    13.062 HEAT: -115.2709
 CYCLE:   104 TIME:   0.016 TIME LEFT:  2.00D  GRAD.:    12.782 HEAT: -115.3060
 CYCLE:   105 TIME:   0.012 TIME LEFT:  2.00D  GRAD.:     9.340 HEAT: -115.3804
 CYCLE:   106 TIME:   0.016 TIME LEFT:  2.00D  GRAD.:     7.530 HEAT: -115.4270
 CYCLE:   107 TIME:   0.012 TIME LEFT:  2.00D  GRAD.:     5.484 HEAT: -115.4694
 CYCLE:   108 TIME:   0.016 TIME LEFT:  2.00D  GRAD.:     4.938 HEAT: -115.5128
 CYCLE:   109 TIME:   0.012 TIME LEFT:  2.00D  GRAD.:     5.768 HEAT: -115.5741
 CYCLE:   110 TIME:   0.012 TIME LEFT:  2.00D  GRAD.:     7.430 HEAT: -115.5991
 CYCLE:   111 TIME:   0.016 TIME LEFT:  2.00D  GRAD.:     5.512 HEAT: -115.6318
 CYCLE:   112 TIME:   0.012 TIME LEFT:  2.00D  GRAD.:     4.506 HEAT: -115.6571
 CYCLE:   113 TIME:   0.012 TIME LEFT:  2.00D  GRAD.:     3.632 HEAT: -115.6832
 CYCLE:   114 TIME:   0.016 TIME LEFT:  2.00D  GRAD.:     5.843 HEAT: -115.7182
 CYCLE:   115 TIME:   0.016 TIME LEFT:  2.00D  GRAD.:     5.003 HEAT: -115.7472
 CYCLE:   116 TIME:   0.012 TIME LEFT:  2.00D  GRAD.:     4.852 HEAT: -115.7913
 CYCLE:   117 TIME:   0.012 TIME LEFT:  2.00D  GRAD.:     4.715 HEAT: -115.8910
 CYCLE:   118 TIME:   0.020 TIME LEFT:  2.00D  GRAD.:     8.074 HEAT: -115.9458
 CYCLE:   119 TIME:   0.016 TIME LEFT:  2.00D  GRAD.:     4.307 HEAT: -115.9879
 CYCLE:   120 TIME:   0.062 TIME LEFT:  2.00D  GRAD.:     3.369 HEAT: -116.0198
 CYCLE:   121 TIME:   0.090 TIME LEFT:  2.00D  GRAD.:     4.045 HEAT: -116.0462
 CYCLE:   122 TIME:   0.082 TIME LEFT:  2.00D  GRAD.:     2.477 HEAT: -116.0596
 CYCLE:   123 TIME:   0.035 TIME LEFT:  2.00D  GRAD.:     1.765 HEAT: -116.0740
 CYCLE:   124 TIME:   0.012 TIME LEFT:  2.00D  GRAD.:     1.758 HEAT: -116.0848
 CYCLE:   125 TIME:   0.016 TIME LEFT:  2.00D  GRAD.:     1.336 HEAT: -116.0922
 CYCLE:   126 TIME:   0.016 TIME LEFT:  2.00D  GRAD.:     1.693 HEAT: -116.0970
 CYCLE:   127 TIME:   0.012 TIME LEFT:  2.00D  GRAD.:     1.552 HEAT: -116.1019
 CYCLE:   128 TIME:   0.012 TIME LEFT:  2.00D  GRAD.:     1.897 HEAT: -116.1107
 CYCLE:   129 TIME:   0.016 TIME LEFT:  2.00D  GRAD.:     1.876 HEAT: -116.1178
 CYCLE:   130 TIME:   0.016 TIME LEFT:  2.00D  GRAD.:     2.452 HEAT: -116.1366
 CYCLE:   131 TIME:   0.012 TIME LEFT:  2.00D  GRAD.:     3.554 HEAT: -116.1654
 CYCLE:   132 TIME:   0.016 TIME LEFT:  2.00D  GRAD.:     5.604 HEAT: -116.2077
 CYCLE:   133 TIME:   0.016 TIME LEFT:  2.00D  GRAD.:     4.425 HEAT: -116.2426
 CYCLE:   134 TIME:   0.012 TIME LEFT:  2.00D  GRAD.:     6.776 HEAT: -116.2557
 CYCLE:   135 TIME:   0.016 TIME LEFT:  2.00D  GRAD.:     3.406 HEAT: -116.2856
 CYCLE:   136 TIME:   0.012 TIME LEFT:  2.00D  GRAD.:     1.728 HEAT: -116.2969
 CYCLE:   137 TIME:   0.016 TIME LEFT:  2.00D  GRAD.:     1.877 HEAT: -116.3105
 CYCLE:   138 TIME:   0.016 TIME LEFT:  2.00D  GRAD.:     3.394 HEAT: -116.3213
 CYCLE:   139 TIME:   0.012 TIME LEFT:  2.00D  GRAD.:     1.708 HEAT: -116.3283
 CYCLE:   140 TIME:   0.016 TIME LEFT:  2.00D  GRAD.:     1.200 HEAT: -116.3348
 CYCLE:   141 TIME:   0.016 TIME LEFT:  2.00D  GRAD.:     1.242 HEAT: -116.3400
 CYCLE:   142 TIME:   0.012 TIME LEFT:  2.00D  GRAD.:     1.695 HEAT: -116.3455
 CYCLE:   143 TIME:   0.016 TIME LEFT:  2.00D  GRAD.:     1.184 HEAT: -116.3494
 CYCLE:   144 TIME:   0.016 TIME LEFT:  2.00D  GRAD.:     2.398 HEAT: -116.3479
 CYCLE:   145 TIME:   0.016 TIME LEFT:  2.00D  GRAD.:     1.488 HEAT: -116.3550
 CYCLE:   146 TIME:   0.016 TIME LEFT:  2.00D  GRAD.:     0.964 HEAT: -116.3574

     GRADIENT =  0.96395 IS LESS THAN CUTOFF =  1.00000



 -------------------------------------------------------------------------------
 PM7 XYZ

 freesolv_362 - geometry optimisation


     GEOMETRY OPTIMISED USING EIGENVECTOR FOLLOWING (EF).     
     SCF FIELD WAS ACHIEVED                                   


                              PM7 CALCULATION
                                                       MOPAC v23.0.3 Linux
                                                       Fri Jul 25 15:24:00 2025




          FINAL HEAT OF FORMATION =       -116.35743 KCAL/MOL =    -486.83947 KJ/MOL


          COSMO AREA              =        235.05 SQUARE ANGSTROMS
          COSMO VOLUME            =        252.31 CUBIC ANGSTROMS

          GRADIENT NORM           =          0.96395          =       0.17599 PER ATOM
          IONIZATION POTENTIAL    =          9.006130 EV
          HOMO LUMO ENERGIES (EV) =         -9.006  0.244
          NO. OF FILLED LEVELS    =         39
          MOLECULAR WEIGHT        =        196.2456         POINT GROUP:  C1  

          MOLECULAR DIMENSIONS (Angstroms)

            Atom       Atom       Distance
            H    28    H    15     8.87805
            H    27    H    24     6.61262
            H    23    H    29     4.44031


          SCF CALCULATIONS        =        168

          WALL-CLOCK TIME         =      2.574 SECONDS
          COMPUTATION TIME        =     51.189 SECONDS




   ATOM   CHEMICAL          X               Y               Z
  NUMBER   SYMBOL      (ANGSTROMS)     (ANGSTROMS)     (ANGSTROMS)

     1       C         -0.82216857  *   2.40964828  *  -2.63249604  *
     2       C         -1.19388878  *   0.93403517  *  -2.57416550  *
     3       O         -1.71796488  *   0.57959213  *  -1.30203797  *
     4       C         -0.82095481  *   0.64655063  *  -0.22997610  *
     5       O         -1.45922324  *   0.17233781  *   0.89268662  *
     6       C         -2.06999440  *  -1.11883551  *   0.78077988  *
     7       C         -1.67025110  *  -1.86330146  *   2.04681016  *
     8       O          0.27118030  *  -0.19789034  *  -0.61836003  *
     9       C          1.30171265  *  -0.38708472  *   0.23990955  *
    10       C          2.33671140  *  -1.16098388  *  -0.30833123  *
    11       C          3.45806216  *  -1.41585895  *   0.46903729  *
    12       C          3.54768056  *  -0.91312991  *   1.76936431  *
    13       C          2.50602895  *  -0.15446522  *   2.29708037  *
    14       C          1.36939561  *   0.11853879  *   1.53824594  *
    15       H         -0.79349607  *   2.76888407  *  -3.66788206  *
    16       H         -1.55628847  *   3.02301345  *  -2.09400303  *
    17       H          0.16316411  *   2.60255241  *  -2.19435492  *
    18       H         -0.34683894  *   0.27379022  *  -2.83074283  *
    19       H         -2.05738382  *   0.69349587  *  -3.22599829  *
    20       H         -0.47671269  *   1.67044118  *   0.00525887  *
    21       H         -3.15485448  *  -0.91799751  *   0.72208762  *
    22       H         -1.74067273  *  -1.63915345  *  -0.13532583  *
    23       H         -2.13096396  *  -2.85518142  *   2.08762324  *
    24       H         -1.97172575  *  -1.30862237  *   2.94429482  *
    25       H         -0.58068761  *  -1.99025396  *   2.10215876  *
    26       H          2.24401734  *  -1.54491099  *  -1.31982586  *
    27       H          4.27430331  *  -2.01096343  *   0.06135289  *
    28       H          4.43048411  *  -1.11647126  *   2.36815801  *
    29       H          2.57494971  *   0.22932530  *   3.31446723  *
    30       H          0.55447111  *   0.69488386  *   1.96616449  *

                             CARTESIAN COORDINATES

   1    C       -0.822168575     2.409648278    -2.632496037
   2    C       -1.193888776     0.934035168    -2.574165504
   3    O       -1.717964878     0.579592130    -1.302037974
   4    C       -0.820954808     0.646550626    -0.229976102
   5    O       -1.459223239     0.172337807     0.892686622
   6    C       -2.069994399    -1.118835506     0.780779878
   7    C       -1.670251103    -1.863301463     2.046810160
   8    O        0.271180297    -0.197890344    -0.618360031
   9    C        1.301712650    -0.387084723     0.239909547
  10    C        2.336711399    -1.160983882    -0.308331234
  11    C        3.458062158    -1.415858951     0.469037287
  12    C        3.547680564    -0.913129914     1.769364313
  13    C        2.506028954    -0.154465224     2.297080368
  14    C        1.369395608     0.118538792     1.538245940
  15    H       -0.793496070     2.768884072    -3.667882058
  16    H       -1.556288473     3.023013449    -2.094003026
  17    H        0.163164108     2.602552407    -2.194354919
  18    H       -0.346838944     0.273790218    -2.830742833
  19    H       -2.057383817     0.693495869    -3.225998286
  20    H       -0.476712695     1.670441183     0.005258869
  21    H       -3.154854481    -0.917997505     0.722087625
  22    H       -1.740672727    -1.639153446    -0.135325832
  23    H       -2.130963957    -2.855181417     2.087623245
  24    H       -1.971725751    -1.308622366     2.944294816
  25    H       -0.580687608    -1.990253964     2.102158761
  26    H        2.244017339    -1.544910991    -1.319825864
  27    H        4.274303312    -2.010963428     0.061352891
  28    H        4.430484115    -1.116471256     2.368158013
  29    H        2.574949714     0.229325303     3.314467232
  30    H        0.554471112     0.694883857     1.966164488


           Empirical Formula: C11 H16 O3  =    30 atoms



      MOLECULAR POINT GROUP   :   C1  


                  EIGENVALUES  
 -30.91708 -30.44266 -29.61246 -29.36720 -26.90698 -26.41920 -25.90164 -25.27428
 -23.56212 -21.72082 -21.33956 -20.83294 -20.30121 -18.51544 -17.61517 -17.25378
 -16.88591 -15.67392 -15.54141 -15.36808 -14.87312 -14.74738 -14.36592 -14.25122
 -14.03980 -13.65565 -13.45041 -13.33444 -12.90385 -12.52427 -12.30974 -12.23113
 -11.80500 -11.79443 -11.59236 -10.65787 -10.47715  -9.87174  -9.00613   0.24364
   0.44976   1.60848   1.91499   2.42621   2.65715   4.02639   4.08566   4.17976
   4.35950   4.47687   4.67142   4.87163   5.09477   5.11276   5.25274   5.34562
   5.49500   5.56089   5.61769   5.84696   5.87881   5.89114   5.95887   5.98727
   6.14736   6.15038   6.15817   6.37725   6.42889   6.47486   6.75366   7.06577


              NET ATOMIC CHARGES AND DIPOLE CONTRIBUTIONS

  ATOM NO.   TYPE          CHARGE      No. of ELECS.   s-Pop       p-Pop       
    1          C          -0.490682        4.4907     1.05784     3.43284
    2          C           0.011062        3.9889     1.08596     2.90298
    3          O          -0.445879        6.4459     1.87165     4.57423
    4          C           0.515679        3.4843     1.12609     2.35823
    5          O          -0.437646        6.4376     1.86770     4.56995
    6          C           0.011829        3.9882     1.08804     2.90013
    7          C          -0.470799        4.4708     1.05589     3.41491
    8          O          -0.470687        6.4707     1.85599     4.61469
    9          C           0.297188        3.7028     1.08066     2.62215
   10          C          -0.256821        4.2568     1.07711     3.17971
   11          C          -0.081641        4.0816     1.08403     2.99761
   12          C          -0.226434        4.2264     1.07656     3.14988
   13          C          -0.074926        4.0749     1.08400     2.99093
   14          C          -0.296908        4.2969     1.07897     3.21793
   15          H           0.154182        0.8458     0.84582
   16          H           0.161939        0.8381     0.83806
   17          H           0.152976        0.8470     0.84702
   18          H           0.136785        0.8632     0.86322
   19          H           0.139872        0.8601     0.86013
   20          H           0.138581        0.8614     0.86142
   21          H           0.130914        0.8691     0.86909
   22          H           0.138325        0.8617     0.86168
   23          H           0.151302        0.8487     0.84870
   24          H           0.158181        0.8418     0.84182
   25          H           0.161165        0.8388     0.83884
   26          H           0.170007        0.8300     0.82999
   27          H           0.146984        0.8530     0.85302
   28          H           0.151174        0.8488     0.84883
   29          H           0.147146        0.8529     0.85285
   30          H           0.177133        0.8229     0.82287
 DIPOLE           X         Y         Z       TOTAL
 POINT-CHG.     0.657     0.337    -0.717     1.029
 HYBRID        -0.333     0.041    -0.022     0.337
 SUM            0.323     0.379    -0.739     0.891


          ATOMIC ORBITAL ELECTRON POPULATIONS

     Atom    s        px        py        pz   
    1  C   1.05784   1.17908   1.06953   1.18423
    2  C   1.08596   1.10524   0.98399   0.81374
    3  O   1.87165   1.42058   1.89148   1.26216
    4  C   1.12609   0.72792   0.89250   0.73782
    5  O   1.86770   1.73323   1.42637   1.41034
    6  C   1.08804   1.04202   0.81421   1.04391
    7  C   1.05589   1.18419   1.13637   1.09435
    8  O   1.85599   1.39165   1.71199   1.51106
    9  C   1.08066   0.82087   0.91188   0.88941
   10  C   1.07711   1.00266   1.08088   1.09618
   11  C   1.08403   1.02244   0.98646   0.98871
   12  C   1.07656   1.06764   1.05377   1.02846
   13  C   1.08400   0.96857   0.96714   1.05522
   14  C   1.07897   1.08116   1.11953   1.01724
   15  H   0.84582
   16  H   0.83806
   17  H   0.84702
   18  H   0.86322
   19  H   0.86013
   20  H   0.86142
   21  H   0.86909
   22  H   0.86168
   23  H   0.84870
   24  H   0.84182
   25  H   0.83884
   26  H   0.82999
   27  H   0.85302
   28  H   0.84883
   29  H   0.85285
   30  H   0.82287

 **********************
 *                    *
 * JOB ENDED NORMALLY *
 *                    *
 **********************



 TOTAL JOB TIME:             2.58 SECONDS

 == MOPAC DONE ==
