 *******************************************************************************
 **                                                                           **
 **                              MOPAC v23.0.3                                **
 **                                                                           **
 *******************************************************************************
 **          Digital Object Identifier (DOI): 10.5281/zenodo.6511958          **
 **    Visit the DOI location for information on how to cite this program.    **
 *******************************************************************************

                              PM7 CALCULATION RESULTS

 *******************************************************************************
 *  CALCULATION DONE:                                Fri Jul 25 15:22:41 2025  *
 *  PM7        - The PM7 Hamiltonian to be used
 *  XYZ        - CARTESIAN COORDINATE SYSTEM TO BE USED
 *  T=         - A TIME OF 172800.0 SECONDS REQUESTED
 *  DUMP=N     - RESTART FILE WRITTEN EVERY 7200.0 SECONDS REQUESTED
 *******************************************************************************
PM7 XYZ

 freesolv_23 - geometry optimisation
   ATOM   CHEMICAL          X               Y               Z
  NUMBER   SYMBOL      (ANGSTROMS)     (ANGSTROMS)     (ANGSTROMS)

     1       C         -1.92306400  *   0.09284100  *   0.03813600  *
     2       C         -1.18318000  *   1.21223500  *  -0.34923700  *
     3       C          0.21369200  *   1.15403600  *  -0.37991800  *
     4       C          0.88607200  *  -0.03044800  *  -0.02154900  *
     5       C          0.12915200  *  -1.15134900  *   0.36691200  *
     6       C         -1.26757700  *  -1.08744100  *   0.39574700  *
     7       N          2.32353500  *  -0.09714600  *  -0.05092600  *
     8       O          3.00029300  *   0.89423300  *  -0.39476000  *
     9       O          2.97705900  *  -1.25632400  *   0.29994600  *
    10       H         -3.00414900  *   0.13999700  *   0.06120000  *
    11       H         -1.69225200  *   2.12642900  *  -0.62617800  *
    12       H          0.76693100  *   2.03355300  *  -0.68328400  *
    13       H          0.61561200  *  -2.07629600  *   0.64812200  *
    14       H         -1.84212300  *  -1.95431800  *   0.69579000  *



          CARTESIAN COORDINATES 

    NO.       ATOM           X           Y           Z

     1         C         -1.9231      0.0928      0.0381
     2         C         -1.1832      1.2122     -0.3492
     3         C          0.2137      1.1540     -0.3799
     4         C          0.8861     -0.0304     -0.0215
     5         C          0.1292     -1.1513      0.3669
     6         C         -1.2676     -1.0874      0.3957
     7         N          2.3235     -0.0971     -0.0509
     8         O          3.0003      0.8942     -0.3948
     9         O          2.9771     -1.2563      0.2999
    10         H         -3.0041      0.1400      0.0612
    11         H         -1.6923      2.1264     -0.6262
    12         H          0.7669      2.0336     -0.6833
    13         H          0.6156     -2.0763      0.6481
    14         H         -1.8421     -1.9543      0.6958

 General Reference for PM7:
 "Optimization of Parameters for Semiempirical Methods VI: More Modifications to the 
 NDDO Approximations and Re-optimization of Parameters", J. J. P. Stewart, J. Mol. Mod., 1:32, 19 (2013)
 https://link.springer.com/article/10.1007/s00894-012-1667-x

           Empirical Formula: C6 H5 N O2  =    14 atoms



      MOLECULAR POINT GROUP   :   C2v 


      RHF CALCULATION, NO. OF DOUBLY OCCUPIED LEVELS = 23


          Geometry optimization using EF

          DIAGONAL MATRIX USED AS START HESSIAN

 CYCLE:     1 TIME:   0.008 TIME LEFT:  2.00D  GRAD.:   239.455 HEAT:  36.33789
 CYCLE:     2 TIME:   0.004 TIME LEFT:  2.00D  GRAD.:   312.236 HEAT:  31.06523
 CYCLE:     3 TIME:   0.008 TIME LEFT:  2.00D  GRAD.:   181.385 HEAT:  22.99990
 CYCLE:     4 TIME:   0.008 TIME LEFT:  2.00D  GRAD.:    50.936 HEAT:  19.49242
 CYCLE:     5 TIME:   0.004 TIME LEFT:  2.00D  GRAD.:    65.216 HEAT:  19.33642
 CYCLE:     6 TIME:   0.004 TIME LEFT:  2.00D  GRAD.:    67.757 HEAT:  19.19890
 CYCLE:     7 TIME:   0.008 TIME LEFT:  2.00D  GRAD.:    28.235 HEAT:  18.49377
 CYCLE:     8 TIME:   0.008 TIME LEFT:  2.00D  GRAD.:    13.390 HEAT:  18.34279
 CYCLE:     9 TIME:   0.008 TIME LEFT:  2.00D  GRAD.:    17.580 HEAT:  18.31826
 CYCLE:    10 TIME:   0.004 TIME LEFT:  2.00D  GRAD.:     7.992 HEAT:  18.24333
 CYCLE:    11 TIME:   0.008 TIME LEFT:  2.00D  GRAD.:     9.485 HEAT:  18.22894
 CYCLE:    12 TIME:   0.000 TIME LEFT:  2.00D  GRAD.:     9.915 HEAT:  18.21716
 CYCLE:    13 TIME:   0.004 TIME LEFT:  2.00D  GRAD.:     8.552 HEAT:  18.20417
 CYCLE:    14 TIME:   0.008 TIME LEFT:  2.00D  GRAD.:     3.980 HEAT:  18.19016
 CYCLE:    15 TIME:   0.008 TIME LEFT:  2.00D  GRAD.:     2.403 HEAT:  18.18641
 CYCLE:    16 TIME:   0.008 TIME LEFT:  2.00D  GRAD.:     6.702 HEAT:  18.19051
 CYCLE:    17 TIME:   0.004 TIME LEFT:  2.00D  GRAD.:     3.289 HEAT:  18.18328
 CYCLE:    18 TIME:   0.008 TIME LEFT:  2.00D  GRAD.:     6.318 HEAT:  18.18865
 CYCLE:    19 TIME:   0.004 TIME LEFT:  2.00D  GRAD.:     2.768 HEAT:  18.18130
 CYCLE:    20 TIME:   0.004 TIME LEFT:  2.00D  GRAD.:     6.111 HEAT:  18.18911
 CYCLE:    21 TIME:   0.004 TIME LEFT:  2.00D  GRAD.:     1.744 HEAT:  18.17978
 CYCLE:    22 TIME:   0.004 TIME LEFT:  2.00D  GRAD.:     4.873 HEAT:  18.18865
 CYCLE:    23 TIME:   0.008 TIME LEFT:  2.00D  GRAD.:     0.551 HEAT:  18.17806

     GRADIENT =  0.55127 IS LESS THAN CUTOFF =  1.00000



 -------------------------------------------------------------------------------
 PM7 XYZ

 freesolv_23 - geometry optimisation


     GEOMETRY OPTIMISED USING EIGENVECTOR FOLLOWING (EF).     
     SCF FIELD WAS ACHIEVED                                   


                              PM7 CALCULATION
                                                       MOPAC v23.0.3 Linux
                                                       Fri Jul 25 15:22:41 2025




          FINAL HEAT OF FORMATION =         18.17805 KCAL/MOL =      76.05698 KJ/MOL


          COSMO AREA              =        146.76 SQUARE ANGSTROMS
          COSMO VOLUME            =        138.85 CUBIC ANGSTROMS

          GRADIENT NORM           =          0.55127          =       0.14733 PER ATOM
          IONIZATION POTENTIAL    =         10.725719 EV
          HOMO LUMO ENERGIES (EV) =        -10.726 -1.318
          NO. OF FILLED LEVELS    =         23
          MOLECULAR WEIGHT        =        123.1110         POINT GROUP:  C2v 

          MOLECULAR DIMENSIONS (Angstroms)

            Atom       Atom       Distance
            H    10    O     8     5.98932
            H    13    H    11     4.69251
            H    14    C     4     0.00052


          SCF CALCULATIONS        =         35

          WALL-CLOCK TIME         =      0.145 SECONDS
          COMPUTATION TIME        =      2.244 SECONDS




   ATOM   CHEMICAL          X               Y               Z
  NUMBER   SYMBOL      (ANGSTROMS)     (ANGSTROMS)     (ANGSTROMS)

     1       C         -1.88718310  *   0.09105676  *   0.03754907  *
     2       C         -1.14644859  *   1.20835432  *  -0.34934988  *
     3       C          0.24378998  *   1.14878394  *  -0.37921299  *
     4       C          0.87572185  *  -0.04377056  *  -0.01670048  *
     5       C          0.14499928  *  -1.16962923  *   0.37225715  *
     6       C         -1.24450222  *  -1.09387916  *   0.39699363  *
     7       N          2.32952082  *  -0.11696247  *  -0.04462626  *
     8       O          2.95102952  *   0.87600988  *  -0.38718812  *
     9       O          2.85932001  *  -1.16896843  *   0.27582134  *
    10       H         -2.97662832  *   0.14408733  *   0.05898865  *
    11       H         -1.65639791  *   2.12989144  *  -0.62895842  *
    12       H          0.83543065  *   2.01883640  *  -0.68109521  *
    13       H          0.66094975  *  -2.09359566  *   0.65192238  *
    14       H         -1.82947173  *  -1.96241363  *   0.69774725  *

                             CARTESIAN COORDINATES

   1    C       -1.887183105     0.091056761     0.037549068
   2    C       -1.146448593     1.208354317    -0.349349885
   3    C        0.243789979     1.148783945    -0.379212992
   4    C        0.875721849    -0.043770557    -0.016700477
   5    C        0.144999276    -1.169629230     0.372257146
   6    C       -1.244502222    -1.093879160     0.396993628
   7    N        2.329520816    -0.116962472    -0.044626264
   8    O        2.951029516     0.876009879    -0.387188118
   9    O        2.859320011    -1.168968432     0.275821335
  10    H       -2.976628322     0.144087329     0.058988650
  11    H       -1.656397914     2.129891436    -0.628958424
  12    H        0.835430646     2.018836404    -0.681095208
  13    H        0.660949754    -2.093595662     0.651922378
  14    H       -1.829471734    -1.962413625     0.697747250


           Empirical Formula: C6 H5 N O2  =    14 atoms



      MOLECULAR POINT GROUP   :   C2v 


                  EIGENVALUES  
 -37.21153 -31.45812 -30.60548 -27.57115 -26.76708 -24.65481 -21.90694 -21.34311
 -19.39147 -17.84404 -17.26684 -17.12296 -15.93244 -15.68901 -15.18052 -14.17553
 -13.35367 -12.83085 -11.31626 -11.26355 -11.08998 -10.79412 -10.72572  -1.31754
  -0.62049   0.42982   0.72743   1.72926   3.25177   3.48151   4.00229   4.06468
   4.25418   4.29506   4.77747   5.02251   5.07488   5.32485   5.38626   5.44310
   5.48041


              NET ATOMIC CHARGES AND DIPOLE CONTRIBUTIONS

  ATOM NO.   TYPE          CHARGE      No. of ELECS.   s-Pop       p-Pop       
    1          C          -0.093651        4.0937     1.09133     3.00232
    2          C          -0.167363        4.1674     1.08334     3.08403
    3          C          -0.084328        4.0843     1.09195     2.99237
    4          C          -0.080904        4.0809     1.07752     3.00338
    5          C          -0.084457        4.0845     1.09202     2.99243
    6          C          -0.167338        4.1673     1.08330     3.08404
    7          N           0.620239        4.3798     1.45227     2.92750
    8          O          -0.396994        6.3970     1.94166     4.45534
    9          O          -0.397547        6.3975     1.94170     4.45584
   10          H           0.155267        0.8447     0.84473
   11          H           0.163148        0.8369     0.83685
   12          H           0.185304        0.8147     0.81470
   13          H           0.185475        0.8145     0.81453
   14          H           0.163147        0.8369     0.83685
 DIPOLE           X         Y         Z       TOTAL
 POINT-CHG.    -5.493     0.277     0.105     5.501
 HYBRID         0.443    -0.022    -0.009     0.444
 SUM           -5.050     0.255     0.097     5.058


          ATOMIC ORBITAL ELECTRON POPULATIONS

     Atom    s        px        py        pz   
    1  C   1.09133   1.08299   0.97867   0.94066
    2  C   1.08334   1.00217   1.06270   1.01916
    3  C   1.09195   1.01293   1.03318   0.94627
    4  C   1.07752   0.86506   1.02169   1.11663
    5  C   1.09202   1.00300   1.04482   0.94461
    6  C   1.08330   1.00967   1.05415   1.02023
    7  N   1.45227   1.01186   0.96999   0.94564
    8  O   1.94166   1.69491   1.25291   1.50752
    9  O   1.94170   1.76030   1.17861   1.51693
   10  H   0.84473
   11  H   0.83685
   12  H   0.81470
   13  H   0.81453
   14  H   0.83685

 **********************
 *                    *
 * JOB ENDED NORMALLY *
 *                    *
 **********************



 TOTAL JOB TIME:             0.14 SECONDS

 == MOPAC DONE ==
