 *******************************************************************************
 **                                                                           **
 **                              MOPAC v23.0.3                                **
 **                                                                           **
 *******************************************************************************
 **          Digital Object Identifier (DOI): 10.5281/zenodo.6511958          **
 **    Visit the DOI location for information on how to cite this program.    **
 *******************************************************************************

                              PM7 CALCULATION RESULTS

 *******************************************************************************
 *  CALCULATION DONE:                                Fri Jul 25 15:22:26 2025  *
 *  PM7        - The PM7 Hamiltonian to be used
 *  XYZ        - CARTESIAN COORDINATE SYSTEM TO BE USED
 *  T=         - A TIME OF 172800.0 SECONDS REQUESTED
 *  DUMP=N     - RESTART FILE WRITTEN EVERY 7200.0 SECONDS REQUESTED
 *******************************************************************************
PM7 XYZ

 freesolv_206 - geometry optimisation
   ATOM   CHEMICAL          X               Y               Z
  NUMBER   SYMBOL      (ANGSTROMS)     (ANGSTROMS)     (ANGSTROMS)

     1       C         -1.00853500  *  -0.42655700  *  -0.30621300  *
     2       C          0.00847000  *   0.63050000  *   0.10511800  *
     3       N          1.32362900  *   0.02634000  *   0.27677500  *
     4       O          2.07636700  *  -0.12018500  *  -0.70788500  *
     5       O          1.64910200  *  -0.57279900  *   1.47113000  *
     6       H         -1.07791300  *  -1.21423600  *   0.47384700  *
     7       H         -0.70873800  *  -0.89104900  *  -1.26959000  *
     8       H         -2.00661100  *   0.04390800  *  -0.43041200  *
     9       H          0.05608800  *   1.42364300  *  -0.67262500  *
    10       H         -0.31185900  *   1.10043400  *   1.05985700  *



          CARTESIAN COORDINATES 

    NO.       ATOM           X           Y           Z

     1         C         -1.0085     -0.4266     -0.3062
     2         C          0.0085      0.6305      0.1051
     3         N          1.3236      0.0263      0.2768
     4         O          2.0764     -0.1202     -0.7079
     5         O          1.6491     -0.5728      1.4711
     6         H         -1.0779     -1.2142      0.4738
     7         H         -0.7087     -0.8910     -1.2696
     8         H         -2.0066      0.0439     -0.4304
     9         H          0.0561      1.4236     -0.6726
    10         H         -0.3119      1.1004      1.0599

 General Reference for PM7:
 "Optimization of Parameters for Semiempirical Methods VI: More Modifications to the 
 NDDO Approximations and Re-optimization of Parameters", J. J. P. Stewart, J. Mol. Mod., 1:32, 19 (2013)
 https://link.springer.com/article/10.1007/s00894-012-1667-x

           Empirical Formula: C2 H5 N O2  =    10 atoms



      MOLECULAR POINT GROUP   :   Cs  


      RHF CALCULATION, NO. OF DOUBLY OCCUPIED LEVELS = 15


          Geometry optimization using EF

          DIAGONAL MATRIX USED AS START HESSIAN

 CYCLE:     1 TIME:   0.000 TIME LEFT:  2.00D  GRAD.:   255.469 HEAT: -3.338896
 CYCLE:     2 TIME:   0.004 TIME LEFT:  2.00D  GRAD.:   291.494 HEAT: -11.30653
 CYCLE:     3 TIME:   0.004 TIME LEFT:  2.00D  GRAD.:   192.955 HEAT: -17.85840
 CYCLE:     4 TIME:   0.004 TIME LEFT:  2.00D  GRAD.:    55.026 HEAT: -21.65761
 CYCLE:     5 TIME:   0.000 TIME LEFT:  2.00D  GRAD.:    71.448 HEAT: -21.70484
 CYCLE:     6 TIME:   0.004 TIME LEFT:  2.00D  GRAD.:    15.638 HEAT: -22.50739
 CYCLE:     7 TIME:   0.004 TIME LEFT:  2.00D  GRAD.:     9.534 HEAT: -22.60542
 CYCLE:     8 TIME:   0.004 TIME LEFT:  2.00D  GRAD.:     5.670 HEAT: -22.62612
 CYCLE:     9 TIME:   0.000 TIME LEFT:  2.00D  GRAD.:     4.341 HEAT: -22.63693
 CYCLE:    10 TIME:   0.004 TIME LEFT:  2.00D  GRAD.:     2.476 HEAT: -22.64504
 CYCLE:    11 TIME:   0.004 TIME LEFT:  2.00D  GRAD.:     3.992 HEAT: -22.64396
 CYCLE:    12 TIME:   0.000 TIME LEFT:  2.00D  GRAD.:     2.818 HEAT: -22.64891
 CYCLE:    13 TIME:   0.000 TIME LEFT:  2.00D  GRAD.:     6.273 HEAT: -22.64065
 CYCLE:    14 TIME:   0.004 TIME LEFT:  2.00D  GRAD.:     2.743 HEAT: -22.65182
 CYCLE:    15 TIME:   0.004 TIME LEFT:  2.00D  GRAD.:     2.058 HEAT: -22.65451
 CYCLE:    16 TIME:   0.000 TIME LEFT:  2.00D  GRAD.:     0.793 HEAT: -22.65663

     GRADIENT =  0.79269 IS LESS THAN CUTOFF =  1.00000



 -------------------------------------------------------------------------------
 PM7 XYZ

 freesolv_206 - geometry optimisation


     GEOMETRY OPTIMISED USING EIGENVECTOR FOLLOWING (EF).     
     SCF FIELD WAS ACHIEVED                                   


                              PM7 CALCULATION
                                                       MOPAC v23.0.3 Linux
                                                       Fri Jul 25 15:22:27 2025




          FINAL HEAT OF FORMATION =        -22.65663 KCAL/MOL =     -94.79534 KJ/MOL


          COSMO AREA              =        107.10 SQUARE ANGSTROMS
          COSMO VOLUME            =         91.39 CUBIC ANGSTROMS

          GRADIENT NORM           =          0.79269          =       0.25067 PER ATOM
          IONIZATION POTENTIAL    =         11.007591 EV
          HOMO LUMO ENERGIES (EV) =        -11.008 -0.041
          NO. OF FILLED LEVELS    =         15
          MOLECULAR WEIGHT        =         75.0670         POINT GROUP:  Cs  

          MOLECULAR DIMENSIONS (Angstroms)

            Atom       Atom       Distance
            H     8    O     4     4.09114
            H    10    H     7     3.10334
            O     5    H     9     2.80814


          SCF CALCULATIONS        =         24

          WALL-CLOCK TIME         =      0.051 SECONDS
          COMPUTATION TIME        =      1.019 SECONDS




   ATOM   CHEMICAL          X               Y               Z
  NUMBER   SYMBOL      (ANGSTROMS)     (ANGSTROMS)     (ANGSTROMS)

     1       C         -1.00826484  *  -0.42654638  *  -0.29931312  *
     2       C          0.01708285  *   0.61926994  *   0.12104514  *
     3       N          1.34350285  *  -0.04608089  *   0.29399750  *
     4       O          2.08047743  *  -0.10088149  *  -0.67280550  *
     5       O          1.60879318  *  -0.50328619  *   1.38998341  *
     6       H         -1.10929323  *  -1.22630683  *   0.44909889  *
     7       H         -0.74111867  *  -0.90305799  *  -1.25466759  *
     8       H         -2.00140115  *   0.02483136  *  -0.42801343  *
     9       H          0.11349806  *   1.41991884  *  -0.64691037  *
    10       H         -0.27124741  *   1.10215611  *   1.08210718  *

                             CARTESIAN COORDINATES

   1    C       -1.008264841    -0.426546375    -0.299313122
   2    C        0.017082854     0.619269943     0.121045137
   3    N        1.343502848    -0.046080891     0.293997499
   4    O        2.080477428    -0.100881492    -0.672805500
   5    O        1.608793175    -0.503286195     1.389983406
   6    H       -1.109293232    -1.226306829     0.449098887
   7    H       -0.741118673    -0.903057992    -1.254667591
   8    H       -2.001401154     0.024831363    -0.428013432
   9    H        0.113498057     1.419918838    -0.646910370
  10    H       -0.271247409     1.102156115     1.082107177


           Empirical Formula: C2 H5 N O2  =    10 atoms



      MOLECULAR POINT GROUP   :   Cs  


                  EIGENVALUES  
 -37.20877 -30.65029 -28.72646 -24.99231 -21.86945 -18.33621 -18.21120 -17.20840
 -15.92544 -14.44863 -14.01675 -13.14515 -11.37261 -11.32087 -11.00759  -0.04123
   0.65168   3.02275   3.96102   3.99753   4.78829   4.85450   4.93531   5.16747
   6.01185


              NET ATOMIC CHARGES AND DIPOLE CONTRIBUTIONS

  ATOM NO.   TYPE          CHARGE      No. of ELECS.   s-Pop       p-Pop       
    1          C          -0.444630        4.4446     1.05387     3.39076
    2          C          -0.217180        4.2172     1.09100     3.12618
    3          N           0.603972        4.3960     1.46608     2.92995
    4          O          -0.397493        6.3975     1.94061     4.45688
    5          O          -0.397506        6.3975     1.94057     4.45693
    6          H           0.168448        0.8316     0.83155
    7          H           0.168152        0.8318     0.83185
    8          H           0.163291        0.8367     0.83671
    9          H           0.176489        0.8235     0.82351
   10          H           0.176457        0.8235     0.82354
 DIPOLE           X         Y         Z       TOTAL
 POINT-CHG.    -4.210     1.721    -0.620     4.590
 HYBRID         0.322    -0.143     0.046     0.355
 SUM           -3.889     1.577    -0.574     4.235


          ATOMIC ORBITAL ELECTRON POPULATIONS

     Atom    s        px        py        pz   
    1  C   1.05387   1.09894   1.10464   1.18719
    2  C   1.09100   0.89767   1.05204   1.17647
    3  N   1.46608   1.00341   0.95784   0.96869
    4  O   1.94061   1.53651   1.63355   1.28683
    5  O   1.94057   1.82354   1.50816   1.12524
    6  H   0.83155
    7  H   0.83185
    8  H   0.83671
    9  H   0.82351
   10  H   0.82354

 **********************
 *                    *
 * JOB ENDED NORMALLY *
 *                    *
 **********************



 TOTAL JOB TIME:             0.05 SECONDS

 == MOPAC DONE ==
