 *******************************************************************************
 **                                                                           **
 **                              MOPAC v23.0.3                                **
 **                                                                           **
 *******************************************************************************
 **          Digital Object Identifier (DOI): 10.5281/zenodo.6511958          **
 **    Visit the DOI location for information on how to cite this program.    **
 *******************************************************************************

                              PM7 CALCULATION RESULTS

 *******************************************************************************
 *  CALCULATION DONE:                                Fri Jul 25 15:23:29 2025  *
 *  PM7        - The PM7 Hamiltonian to be used
 *  XYZ        - CARTESIAN COORDINATE SYSTEM TO BE USED
 *  T=         - A TIME OF 172800.0 SECONDS REQUESTED
 *  DUMP=N     - RESTART FILE WRITTEN EVERY 7200.0 SECONDS REQUESTED
 *******************************************************************************
PM7 XYZ

 freesolv_326 - geometry optimisation
   ATOM   CHEMICAL          X               Y               Z
  NUMBER   SYMBOL      (ANGSTROMS)     (ANGSTROMS)     (ANGSTROMS)

     1       C         -3.48212900  *   0.18720700  *  -0.37706800  *
     2       C         -2.86168000  *  -1.06130800  *  -0.26757500  *
     3       C         -1.46960300  *  -1.14695500  *  -0.11646300  *
     4       C         -0.83270000  *  -2.39241300  *  -0.00535600  *
     5       C          0.55631500  *  -2.46708900  *   0.14505900  *
     6       C          1.33057300  *  -1.29749900  *   0.18674800  *
     7       C          2.72387500  *  -1.36160100  *   0.33725000  *
     8       C          3.48212900  *  -0.18720700  *   0.37706900  *
     9       C          2.86167900  *   1.06130900  *   0.26758400  *
    10       C          1.46960400  *   1.14695500  *   0.11645800  *
    11       C          0.70014500  *  -0.03764100  *   0.07581000  *
    12       C         -0.70014500  *   0.03764100  *  -0.07581200  *
    13       C         -1.33057400  *   1.29749900  *  -0.18674400  *
    14       C         -2.72387400  *   1.36160000  *  -0.33725800  *
    15       C         -0.55631700  *   2.46709000  *  -0.14504800  *
    16       C          0.83270200  *   2.39241300  *   0.00534500  *
    17       H         -4.55668900  *   0.24497600  *  -0.49344700  *
    18       H         -3.46906500  *  -1.95792400  *  -0.30103000  *
    19       H         -1.40931900  *  -3.30928800  *  -0.03480100  *
    20       H          1.02544100  *  -3.44018600  *   0.22885300  *
    21       H          3.22587700  *  -2.31785900  *   0.42395600  *
    22       H          4.55668900  *  -0.24497700  *   0.49344500  *
    23       H          3.46906300  *   1.95792500  *   0.30103600  *
    24       H         -3.22587700  *   2.31785900  *  -0.42396000  *
    25       H         -1.02544300  *   3.44018600  *  -0.22884100  *
    26       H          1.40932100  *   3.30928800  *   0.03478900  *



          CARTESIAN COORDINATES 

    NO.       ATOM           X           Y           Z

     1         C         -3.4821      0.1872     -0.3771
     2         C         -2.8617     -1.0613     -0.2676
     3         C         -1.4696     -1.1470     -0.1165
     4         C         -0.8327     -2.3924     -0.0054
     5         C          0.5563     -2.4671      0.1451
     6         C          1.3306     -1.2975      0.1867
     7         C          2.7239     -1.3616      0.3373
     8         C          3.4821     -0.1872      0.3771
     9         C          2.8617      1.0613      0.2676
    10         C          1.4696      1.1470      0.1165
    11         C          0.7001     -0.0376      0.0758
    12         C         -0.7001      0.0376     -0.0758
    13         C         -1.3306      1.2975     -0.1867
    14         C         -2.7239      1.3616     -0.3373
    15         C         -0.5563      2.4671     -0.1450
    16         C          0.8327      2.3924      0.0053
    17         H         -4.5567      0.2450     -0.4934
    18         H         -3.4691     -1.9579     -0.3010
    19         H         -1.4093     -3.3093     -0.0348
    20         H          1.0254     -3.4402      0.2289
    21         H          3.2259     -2.3179      0.4240
    22         H          4.5567     -0.2450      0.4934
    23         H          3.4691      1.9579      0.3010
    24         H         -3.2259      2.3179     -0.4240
    25         H         -1.0254      3.4402     -0.2288
    26         H          1.4093      3.3093      0.0348

 General Reference for PM7:
 "Optimization of Parameters for Semiempirical Methods VI: More Modifications to the 
 NDDO Approximations and Re-optimization of Parameters", J. J. P. Stewart, J. Mol. Mod., 1:32, 19 (2013)
 https://link.springer.com/article/10.1007/s00894-012-1667-x

           Empirical Formula: C16 H10  =    26 atoms



      MOLECULAR POINT GROUP   :   D2h 


      RHF CALCULATION, NO. OF DOUBLY OCCUPIED LEVELS = 37


          Geometry optimization using EF

          DIAGONAL MATRIX USED AS START HESSIAN

 CYCLE:     1 TIME:   0.020 TIME LEFT:  2.00D  GRAD.:   162.865 HEAT:  68.13977
 CYCLE:     2 TIME:   0.027 TIME LEFT:  2.00D  GRAD.:   138.909 HEAT:  65.65161
 CYCLE:     3 TIME:   0.023 TIME LEFT:  2.00D  GRAD.:    52.097 HEAT:  63.32455
 CYCLE:     4 TIME:   0.027 TIME LEFT:  2.00D  GRAD.:    30.788 HEAT:  62.87405
 CYCLE:     5 TIME:   0.012 TIME LEFT:  2.00D  GRAD.:    24.956 HEAT:  62.80642
 CYCLE:     6 TIME:   0.023 TIME LEFT:  2.00D  GRAD.:    13.561 HEAT:  62.64174
 CYCLE:     7 TIME:   0.020 TIME LEFT:  2.00D  GRAD.:    11.209 HEAT:  62.62420
 CYCLE:     8 TIME:   0.023 TIME LEFT:  2.00D  GRAD.:     8.108 HEAT:  62.60589
 CYCLE:     9 TIME:   0.012 TIME LEFT:  2.00D  GRAD.:     5.318 HEAT:  62.59916
 CYCLE:    10 TIME:   0.023 TIME LEFT:  2.00D  GRAD.:     3.101 HEAT:  62.59353
 CYCLE:    11 TIME:   0.012 TIME LEFT:  2.00D  GRAD.:     6.524 HEAT:  62.60077
 CYCLE:    12 TIME:   0.008 TIME LEFT:  2.00D  GRAD.:     3.995 HEAT:  62.59388
 CYCLE:    13 TIME:   0.035 TIME LEFT:  2.00D  GRAD.:     4.933 HEAT:  62.59515
 CYCLE:    14 TIME:   0.012 TIME LEFT:  2.00D  GRAD.:     6.988 HEAT:  62.60311
 CYCLE:    15 TIME:   0.012 TIME LEFT:  2.00D  GRAD.:     3.828 HEAT:  62.59467
 CYCLE:    16 TIME:   0.020 TIME LEFT:  2.00D  GRAD.:     4.101 HEAT:  62.59574
 CYCLE:    17 TIME:   0.012 TIME LEFT:  2.00D  GRAD.:     6.750 HEAT:  62.60011
 CYCLE:    18 TIME:   0.027 TIME LEFT:  2.00D  GRAD.:     5.368 HEAT:  62.59707
 CYCLE:    19 TIME:   0.012 TIME LEFT:  2.00D  GRAD.:     5.119 HEAT:  62.59637
 CYCLE:    20 TIME:   0.012 TIME LEFT:  2.00D  GRAD.:     6.841 HEAT:  62.60064
 CYCLE:    21 TIME:   0.012 TIME LEFT:  2.00D  GRAD.:     4.857 HEAT:  62.59588
 CYCLE:    22 TIME:   0.012 TIME LEFT:  2.00D  GRAD.:     5.367 HEAT:  62.59772
 CYCLE:    23 TIME:   0.023 TIME LEFT:  2.00D  GRAD.:     5.053 HEAT:  62.59569
 CYCLE:    24 TIME:   0.012 TIME LEFT:  2.00D  GRAD.:     4.282 HEAT:  62.59552
 CYCLE:    25 TIME:   0.012 TIME LEFT:  2.00D  GRAD.:     5.212 HEAT:  62.59659
 CYCLE:    26 TIME:   0.023 TIME LEFT:  2.00D  GRAD.:     2.434 HEAT:  62.59216
 CYCLE:    27 TIME:   0.012 TIME LEFT:  2.00D  GRAD.:     6.498 HEAT:  62.59971
 CYCLE:    28 TIME:   0.012 TIME LEFT:  2.00D  GRAD.:     3.715 HEAT:  62.59403
 CYCLE:    29 TIME:   0.020 TIME LEFT:  2.00D  GRAD.:     3.344 HEAT:  62.59490
 CYCLE:    30 TIME:   0.012 TIME LEFT:  2.00D  GRAD.:     7.870 HEAT:  62.60215
 CYCLE:    31 TIME:   0.023 TIME LEFT:  2.00D  GRAD.:     2.503 HEAT:  62.59283
 CYCLE:    32 TIME:   0.023 TIME LEFT:  2.00D  GRAD.:     2.308 HEAT:  62.59229
 CYCLE:    33 TIME:   0.012 TIME LEFT:  2.00D  GRAD.:     4.519 HEAT:  62.59589
 CYCLE:    34 TIME:   0.012 TIME LEFT:  2.00D  GRAD.:     4.442 HEAT:  62.59509
 CYCLE:    35 TIME:   0.023 TIME LEFT:  2.00D  GRAD.:     2.109 HEAT:  62.59212
 CYCLE:    36 TIME:   0.012 TIME LEFT:  2.00D  GRAD.:     5.493 HEAT:  62.59748
 CYCLE:    37 TIME:   0.012 TIME LEFT:  2.00D  GRAD.:     3.192 HEAT:  62.59326
 CYCLE:    38 TIME:   0.020 TIME LEFT:  2.00D  GRAD.:     3.042 HEAT:  62.59324
 CYCLE:    39 TIME:   0.012 TIME LEFT:  2.00D  GRAD.:     6.862 HEAT:  62.60148
 CYCLE:    40 TIME:   0.012 TIME LEFT:  2.00D  GRAD.:     3.953 HEAT:  62.59505
 CYCLE:    41 TIME:   0.035 TIME LEFT:  2.00D  GRAD.:     1.500 HEAT:  62.59161
 CYCLE:    42 TIME:   0.012 TIME LEFT:  2.00D  GRAD.:     3.540 HEAT:  62.59466
 CYCLE:    43 TIME:   0.012 TIME LEFT:  2.00D  GRAD.:     2.953 HEAT:  62.59305
 CYCLE:    44 TIME:   0.012 TIME LEFT:  2.00D  GRAD.:     5.401 HEAT:  62.60303
 CYCLE:    45 TIME:   0.012 TIME LEFT:  2.00D  GRAD.:     2.306 HEAT:  62.59238
 CYCLE:    46 TIME:   0.012 TIME LEFT:  2.00D  GRAD.:     4.269 HEAT:  62.59634
 CYCLE:    47 TIME:   0.012 TIME LEFT:  2.00D  GRAD.:     1.315 HEAT:  62.59149
 CYCLE:    48 TIME:   0.012 TIME LEFT:  2.00D  GRAD.:     4.734 HEAT:  62.59821
 CYCLE:    49 TIME:   0.012 TIME LEFT:  2.00D  GRAD.:     0.971 HEAT:  62.59119

     GRADIENT =  0.97109 IS LESS THAN CUTOFF =  1.00000



 -------------------------------------------------------------------------------
 PM7 XYZ

 freesolv_326 - geometry optimisation


     GEOMETRY OPTIMISED USING EIGENVECTOR FOLLOWING (EF).     
     SCF FIELD WAS ACHIEVED                                   


                              PM7 CALCULATION
                                                       MOPAC v23.0.3 Linux
                                                       Fri Jul 25 15:23:30 2025




          FINAL HEAT OF FORMATION =         62.59119 KCAL/MOL =     261.88154 KJ/MOL


          COSMO AREA              =        223.02 SQUARE ANGSTROMS
          COSMO VOLUME            =        242.14 CUBIC ANGSTROMS

          GRADIENT NORM           =          0.97109          =       0.19045 PER ATOM
          IONIZATION POTENTIAL    =          8.356558 EV
          HOMO LUMO ENERGIES (EV) =         -8.357 -1.101
          NO. OF FILLED LEVELS    =         37
          MOLECULAR WEIGHT        =        202.2550         POINT GROUP:  D2h 

          MOLECULAR DIMENSIONS (Angstroms)

            Atom       Atom       Distance
            H    22    H    17     9.20128
            H    25    H    19     6.77997
            H    18    H    21     0.00021


          SCF CALCULATIONS        =         70

          WALL-CLOCK TIME         =      0.828 SECONDS
          COMPUTATION TIME        =     16.527 SECONDS




   ATOM   CHEMICAL          X               Y               Z
  NUMBER   SYMBOL      (ANGSTROMS)     (ANGSTROMS)     (ANGSTROMS)

     1       C         -3.48579610  *   0.18744563  *  -0.37742239  *
     2       C         -2.87018909  *  -1.05672194  *  -0.26869228  *
     3       C         -1.48275223  *  -1.14616692  *  -0.11792151  *
     4       C         -0.81181927  *  -2.41814957  *  -0.00227863  *
     5       C          0.53269832  *  -2.49071694  *   0.14338469  *
     6       C          1.34366318  *  -1.29824356  *   0.18817790  *
     7       C          2.73281591  *  -1.35772878  *   0.33811896  *
     8       C          3.48593832  *  -0.18729345  *   0.37748631  *
     9       C          2.87025465  *   1.05655909  *   0.26861820  *
    10       C          1.48271248  *   1.14616687  *   0.11789131  *
    11       C          0.71139295  *  -0.03825582  *   0.07702286  *
    12       C         -0.71136269  *   0.03817251  *  -0.07703347  *
    13       C         -1.34371305  *   1.29806026  *  -0.18819198  *
    14       C         -2.73295576  *   1.35803843  *  -0.33804509  *
    15       C         -0.53271485  *   2.49062465  *  -0.14341108  *
    16       C          0.81193425  *   2.41839527  *   0.00225385  *
    17       H         -4.56739728  *   0.24555037  *  -0.49446309  *
    18       H         -3.47024561  *  -1.96430155  *  -0.30099042  *
    19       H         -1.42707815  *  -3.31684519  *  -0.03649567  *
    20       H          1.04200620  *  -3.44945242  *   0.23097005  *
    21       H          3.22634029  *  -2.32446519  *   0.42432295  *
    22       H          4.56737197  *  -0.24553053  *   0.49463671  *
    23       H          3.47022627  *   1.96425275  *   0.30083634  *
    24       H         -3.22635555  *   2.32415212  *  -0.42413708  *
    25       H         -1.04221373  *   3.44939198  *  -0.23102102  *
    26       H          1.42697422  *   3.31660997  *   0.03648398  *

                             CARTESIAN COORDINATES

   1    C       -3.485796103     0.187445632    -0.377422388
   2    C       -2.870189091    -1.056721945    -0.268692278
   3    C       -1.482752228    -1.146166918    -0.117921513
   4    C       -0.811819269    -2.418149568    -0.002278629
   5    C        0.532698317    -2.490716940     0.143384686
   6    C        1.343663178    -1.298243558     0.188177902
   7    C        2.732815913    -1.357728779     0.338118957
   8    C        3.485938319    -0.187293451     0.377486311
   9    C        2.870254646     1.056559093     0.268618197
  10    C        1.482712478     1.146166866     0.117891308
  11    C        0.711392950    -0.038255818     0.077022864
  12    C       -0.711362691     0.038172508    -0.077033472
  13    C       -1.343713054     1.298060261    -0.188191984
  14    C       -2.732955761     1.358038428    -0.338045086
  15    C       -0.532714853     2.490624648    -0.143411076
  16    C        0.811934246     2.418395268     0.002253852
  17    H       -4.567397278     0.245550369    -0.494463093
  18    H       -3.470245609    -1.964301546    -0.300990416
  19    H       -1.427078147    -3.316845186    -0.036495674
  20    H        1.042006203    -3.449452423     0.230970051
  21    H        3.226340286    -2.324465193     0.424322954
  22    H        4.567371973    -0.245530534     0.494636714
  23    H        3.470226271     1.964252748     0.300836335
  24    H       -3.226355553     2.324152123    -0.424137085
  25    H       -1.042213728     3.449391980    -0.231021020
  26    H        1.426974218     3.316609970     0.036483976


           Empirical Formula: C16 H10  =    26 atoms



      MOLECULAR POINT GROUP   :   D2h 


                  EIGENVALUES  
 -31.56596 -30.36413 -29.39447 -28.26345 -26.53720 -25.72754 -24.94806 -24.46262
 -21.82481 -21.73757 -21.32922 -21.23041 -18.16950 -17.88719 -17.36407 -17.02957
 -16.45389 -15.85572 -14.85058 -14.71896 -14.68293 -14.63814 -14.12259 -13.49737
 -13.46261 -13.30213 -13.19344 -12.54632 -12.51335 -12.45507 -11.57945 -11.30496
 -11.10295 -10.28609 -10.02147  -9.07318  -8.35656  -1.10145  -0.45537   0.31139
   0.46781   1.03728   1.89057   2.34125   3.13841   3.54785   3.63946   4.19530
   4.20132   4.41482   4.64071   4.76396   4.77711   4.88850   4.94632   5.00027
   5.05934   5.06756   5.09187   5.42248   5.49978   5.75352   5.78157   5.83372
   5.89518   5.95927   6.01675   6.07245   6.07983   6.09550   6.09925   6.16606
   6.19157   6.19192


              NET ATOMIC CHARGES AND DIPOLE CONTRIBUTIONS

  ATOM NO.   TYPE          CHARGE      No. of ELECS.   s-Pop       p-Pop       
    1          C          -0.142799        4.1428     1.08206     3.06074
    2          C          -0.151705        4.1517     1.08393     3.06777
    3          C          -0.006294        4.0063     1.06179     2.94450
    4          C          -0.149218        4.1492     1.08522     3.06400
    5          C          -0.149173        4.1492     1.08516     3.06402
    6          C          -0.006324        4.0063     1.06184     2.94449
    7          C          -0.151725        4.1517     1.08398     3.06774
    8          C          -0.142805        4.1428     1.08199     3.06081
    9          C          -0.151708        4.1517     1.08391     3.06780
   10          C          -0.006316        4.0063     1.06185     2.94447
   11          C          -0.017106        4.0171     1.06422     2.95289
   12          C          -0.017130        4.0171     1.06420     2.95293
   13          C          -0.006283        4.0063     1.06187     2.94442
   14          C          -0.151695        4.1517     1.08392     3.06778
   15          C          -0.149185        4.1492     1.08522     3.06396
   16          C          -0.149162        4.1492     1.08520     3.06397
   17          H           0.151247        0.8488     0.84875
   18          H           0.154276        0.8457     0.84572
   19          H           0.157295        0.8427     0.84271
   20          H           0.157247        0.8428     0.84275
   21          H           0.154297        0.8457     0.84570
   22          H           0.151257        0.8487     0.84874
   23          H           0.154270        0.8457     0.84573
   24          H           0.154248        0.8458     0.84575
   25          H           0.157252        0.8427     0.84275
   26          H           0.157240        0.8428     0.84276
 DIPOLE           X         Y         Z       TOTAL
 POINT-CHG.    -0.001    -0.001     0.000     0.001
 HYBRID         0.000     0.000    -0.000     0.000
 SUM           -0.000    -0.001     0.000     0.001


          ATOMIC ORBITAL ELECTRON POPULATIONS

     Atom    s        px        py        pz   
    1  C   1.08206   1.07771   0.98395   0.99908
    2  C   1.08393   1.00809   1.05361   1.00607
    3  C   1.06179   0.97811   0.97412   0.99227
    4  C   1.08522   1.01680   1.04422   1.00298
    5  C   1.08516   1.00615   1.05424   1.00363
    6  C   1.06184   0.97806   0.97415   0.99228
    7  C   1.08398   0.99895   1.06228   1.00652
    8  C   1.08199   1.07769   0.98399   0.99913
    9  C   1.08391   1.00809   1.05366   1.00604
   10  C   1.06185   0.97809   0.97409   0.99229
   11  C   1.06422   0.97425   0.98096   0.99768
   12  C   1.06420   0.97428   0.98096   0.99769
   13  C   1.06187   0.97803   0.97415   0.99224
   14  C   1.08392   0.99894   1.06226   1.00658
   15  C   1.08522   1.00614   1.05423   1.00359
   16  C   1.08520   1.01677   1.04417   1.00302
   17  H   0.84875
   18  H   0.84572
   19  H   0.84271
   20  H   0.84275
   21  H   0.84570
   22  H   0.84874
   23  H   0.84573
   24  H   0.84575
   25  H   0.84275
   26  H   0.84276

 **********************
 *                    *
 * JOB ENDED NORMALLY *
 *                    *
 **********************



 TOTAL JOB TIME:             0.83 SECONDS

 == MOPAC DONE ==
