 *******************************************************************************
 **                                                                           **
 **                              MOPAC v23.0.3                                **
 **                                                                           **
 *******************************************************************************
 **          Digital Object Identifier (DOI): 10.5281/zenodo.6511958          **
 **    Visit the DOI location for information on how to cite this program.    **
 *******************************************************************************

                              PM7 CALCULATION RESULTS

 *******************************************************************************
 *  CALCULATION DONE:                                Fri Jul 25 15:22:17 2025  *
 *  PM7        - The PM7 Hamiltonian to be used
 *  XYZ        - CARTESIAN COORDINATE SYSTEM TO BE USED
 *  T=         - A TIME OF 172800.0 SECONDS REQUESTED
 *  DUMP=N     - RESTART FILE WRITTEN EVERY 7200.0 SECONDS REQUESTED
 *******************************************************************************
PM7 XYZ

 freesolv_151 - geometry optimisation
   ATOM   CHEMICAL          X               Y               Z
  NUMBER   SYMBOL      (ANGSTROMS)     (ANGSTROMS)     (ANGSTROMS)

     1       C          1.24758400  *  -0.59085700  *   0.43151400  *
     2       C          0.02078200  *   0.01342500  *  -0.27664000  *
     3       C         -1.26975400  *  -0.64971000  *   0.23955200  *
     4       C         -0.03544200  *   1.52295200  *  -0.00214200  *
     5       O          0.13122000  *  -0.17471000  *  -1.66722700  *
     6       H          1.29889600  *  -1.68676800  *   0.25528200  *
     7       H          2.18177100  *  -0.13242100  *   0.04180000  *
     8       H          1.19507800  *  -0.41423100  *   1.52764500  *
     9       H         -1.39223400  *  -0.47472100  *   1.33034800  *
    10       H         -1.24279000  *  -1.74619000  *   0.06146300  *
    11       H         -2.15436900  *  -0.23379700  *  -0.28885800  *
    12       H         -0.90931200  *   1.97662600  *  -0.51751200  *
    13       H         -0.12324000  *   1.72383500  *   1.08764700  *
    14       H          0.88440400  *   2.01856100  *  -0.38073200  *
    15       H          0.16740600  *  -1.15199300  *  -1.84214200  *



          CARTESIAN COORDINATES 

    NO.       ATOM           X           Y           Z

     1         C          1.2476     -0.5909      0.4315
     2         C          0.0208      0.0134     -0.2766
     3         C         -1.2698     -0.6497      0.2396
     4         C         -0.0354      1.5230     -0.0021
     5         O          0.1312     -0.1747     -1.6672
     6         H          1.2989     -1.6868      0.2553
     7         H          2.1818     -0.1324      0.0418
     8         H          1.1951     -0.4142      1.5276
     9         H         -1.3922     -0.4747      1.3303
    10         H         -1.2428     -1.7462      0.0615
    11         H         -2.1544     -0.2338     -0.2889
    12         H         -0.9093      1.9766     -0.5175
    13         H         -0.1232      1.7238      1.0876
    14         H          0.8844      2.0186     -0.3807
    15         H          0.1674     -1.1520     -1.8421

 General Reference for PM7:
 "Optimization of Parameters for Semiempirical Methods VI: More Modifications to the 
 NDDO Approximations and Re-optimization of Parameters", J. J. P. Stewart, J. Mol. Mod., 1:32, 19 (2013)
 https://link.springer.com/article/10.1007/s00894-012-1667-x

           Empirical Formula: C4 H10 O  =    15 atoms



      MOLECULAR POINT GROUP   :   C1  


      RHF CALCULATION, NO. OF DOUBLY OCCUPIED LEVELS = 16


          Geometry optimization using EF

          DIAGONAL MATRIX USED AS START HESSIAN

 CYCLE:     1 TIME:   0.004 TIME LEFT:  2.00D  GRAD.:    44.746 HEAT: -72.74505
 CYCLE:     2 TIME:   0.016 TIME LEFT:  2.00D  GRAD.:    26.439 HEAT: -73.74991
 CYCLE:     3 TIME:   0.004 TIME LEFT:  2.00D  GRAD.:    12.875 HEAT: -74.11091
 CYCLE:     4 TIME:   0.004 TIME LEFT:  2.00D  GRAD.:    27.479 HEAT: -74.13570
 CYCLE:     5 TIME:   0.004 TIME LEFT:  2.00D  GRAD.:     8.508 HEAT: -74.53453
 CYCLE:     6 TIME:   0.004 TIME LEFT:  2.00D  GRAD.:    12.849 HEAT: -74.59724
 CYCLE:     7 TIME:   0.008 TIME LEFT:  2.00D  GRAD.:    13.805 HEAT: -74.63316
 CYCLE:     8 TIME:   0.008 TIME LEFT:  2.00D  GRAD.:     8.632 HEAT: -74.68580
 CYCLE:     9 TIME:   0.004 TIME LEFT:  2.00D  GRAD.:     3.447 HEAT: -74.71784
 CYCLE:    10 TIME:   0.008 TIME LEFT:  2.00D  GRAD.:     3.507 HEAT: -74.72036
 CYCLE:    11 TIME:   0.004 TIME LEFT:  2.00D  GRAD.:     1.319 HEAT: -74.72883
 CYCLE:    12 TIME:   0.004 TIME LEFT:  2.00D  GRAD.:     2.642 HEAT: -74.73193
 CYCLE:    13 TIME:   0.000 TIME LEFT:  2.00D  GRAD.:     3.142 HEAT: -74.73147
 CYCLE:    14 TIME:   0.004 TIME LEFT:  2.00D  GRAD.:     2.624 HEAT: -74.73596
 CYCLE:    15 TIME:   0.008 TIME LEFT:  2.00D  GRAD.:     4.714 HEAT: -74.73048
 CYCLE:    16 TIME:   0.000 TIME LEFT:  2.00D  GRAD.:     0.685 HEAT: -74.74030

     GRADIENT =  0.68533 IS LESS THAN CUTOFF =  1.00000



 -------------------------------------------------------------------------------
 PM7 XYZ

 freesolv_151 - geometry optimisation


     GEOMETRY OPTIMISED USING EIGENVECTOR FOLLOWING (EF).     
     SCF FIELD WAS ACHIEVED                                   


                              PM7 CALCULATION
                                                       MOPAC v23.0.3 Linux
                                                       Fri Jul 25 15:22:17 2025




          FINAL HEAT OF FORMATION =        -74.74030 KCAL/MOL =    -312.71341 KJ/MOL


          COSMO AREA              =        123.06 SQUARE ANGSTROMS
          COSMO VOLUME            =        114.56 CUBIC ANGSTROMS

          GRADIENT NORM           =          0.68533          =       0.17695 PER ATOM
          IONIZATION POTENTIAL    =         10.524068 EV
          HOMO LUMO ENERGIES (EV) =        -10.524  3.116
          NO. OF FILLED LEVELS    =         16
          MOLECULAR WEIGHT        =         74.1224         POINT GROUP:  Cs  

          MOLECULAR DIMENSIONS (Angstroms)

            Atom       Atom       Distance
            H    14    H    10     4.33730
            H    11    H     8     3.62373
            H    15    H    13     3.56490


          SCF CALCULATIONS        =         25

          WALL-CLOCK TIME         =      0.102 SECONDS
          COMPUTATION TIME        =      2.014 SECONDS




   ATOM   CHEMICAL          X               Y               Z
  NUMBER   SYMBOL      (ANGSTROMS)     (ANGSTROMS)     (ANGSTROMS)

     1       C          1.25137718  *  -0.61024889  *   0.43658340  *
     2       C          0.01702872  *   0.01109493  *  -0.22732998  *
     3       C         -1.27332742  *  -0.66923815  *   0.24403001  *
     4       C         -0.03353621  *   1.52730175  *  -0.02802839  *
     5       O          0.12800505  *  -0.13754002  *  -1.63561899  *
     6       H          1.30707829  *  -1.68842252  *   0.26184295  *
     7       H          2.16962236  *  -0.16540419  *   0.03307186  *
     8       H          1.24810080  *  -0.44618327  *   1.51849751  *
     9       H         -1.44181364  *  -0.50899039  *   1.31323691  *
    10       H         -1.25179141  *  -1.74821535  *   0.06669028  *
    11       H         -2.13956340  *  -0.26620546  *  -0.29561313  *
    12       H         -0.88557901  *   1.96097343  *  -0.56645914  *
    13       H         -0.12006947  *   1.79278991  *   1.02816622  *
    14       H          0.86881356  *   2.00216322  *  -0.43317687  *
    15       H          0.16924001  *  -1.07431468  *  -1.89106744  *

                             CARTESIAN COORDINATES

   1    C        1.251377184    -0.610248887     0.436583396
   2    C        0.017028718     0.011094929    -0.227329981
   3    C       -1.273327422    -0.669238153     0.244030012
   4    C       -0.033536210     1.527301747    -0.028028394
   5    O        0.128005053    -0.137540020    -1.635618988
   6    H        1.307078288    -1.688422518     0.261842954
   7    H        2.169622364    -0.165404186     0.033071856
   8    H        1.248100805    -0.446183266     1.518497506
   9    H       -1.441813640    -0.508990394     1.313236908
  10    H       -1.251791408    -1.748215349     0.066690278
  11    H       -2.139563401    -0.266205460    -0.295613127
  12    H       -0.885579014     1.960973430    -0.566459142
  13    H       -0.120069466     1.792789906     1.028166217
  14    H        0.868813563     2.002163217    -0.433176874
  15    H        0.169240010    -1.074314683    -1.891067440


           Empirical Formula: C4 H10 O  =    15 atoms



      MOLECULAR POINT GROUP   :   Cs  


                  EIGENVALUES  
 -30.07807 -27.22509 -24.18701 -24.17530 -19.46322 -16.80533 -15.61028 -15.36321
 -14.22357 -13.65179 -13.21897 -12.83903 -12.49578 -12.37468 -11.56194 -10.52407
   3.11555   4.04604   4.09262   4.26543   5.64003   5.68333   5.69522   5.77617
   5.90985   5.95377   6.29920   6.82531   6.95879   7.11671


              NET ATOMIC CHARGES AND DIPOLE CONTRIBUTIONS

  ATOM NO.   TYPE          CHARGE      No. of ELECS.   s-Pop       p-Pop       
    1          C          -0.513069        4.5131     1.06461     3.44846
    2          C           0.374356        3.6256     1.06891     2.55673
    3          C          -0.513096        4.5131     1.06458     3.44852
    4          C          -0.476002        4.4760     1.05932     3.41668
    5          O          -0.579532        6.5795     1.84789     4.73164
    6          H           0.147210        0.8528     0.85279
    7          H           0.161720        0.8383     0.83828
    8          H           0.153960        0.8460     0.84604
    9          H           0.153972        0.8460     0.84603
   10          H           0.147228        0.8528     0.85277
   11          H           0.161732        0.8383     0.83827
   12          H           0.160518        0.8395     0.83948
   13          H           0.147580        0.8524     0.85242
   14          H           0.160535        0.8395     0.83947
   15          H           0.312887        0.6871     0.68711
 DIPOLE           X         Y         Z       TOTAL
 POINT-CHG.    -0.119    -0.696     1.769     1.905
 HYBRID         0.023    -0.377    -0.190     0.423
 SUM           -0.096    -1.073     1.579     1.912


          ATOMIC ORBITAL ELECTRON POPULATIONS

     Atom    s        px        py        pz   
    1  C   1.06461   1.12501   1.16236   1.16109
    2  C   1.06891   0.89879   0.92529   0.73266
    3  C   1.06458   1.11834   1.15855   1.17162
    4  C   1.05932   1.19674   1.05566   1.16428
    5  O   1.84789   1.97077   1.41611   1.34476
    6  H   0.85279
    7  H   0.83828
    8  H   0.84604
    9  H   0.84603
   10  H   0.85277
   11  H   0.83827
   12  H   0.83948
   13  H   0.85242
   14  H   0.83947
   15  H   0.68711

 **********************
 *                    *
 * JOB ENDED NORMALLY *
 *                    *
 **********************



 TOTAL JOB TIME:             0.10 SECONDS

 == MOPAC DONE ==
