 *******************************************************************************
 **                                                                           **
 **                              MOPAC v23.0.3                                **
 **                                                                           **
 *******************************************************************************
 **          Digital Object Identifier (DOI): 10.5281/zenodo.6511958          **
 **    Visit the DOI location for information on how to cite this program.    **
 *******************************************************************************

                              PM7 CALCULATION RESULTS

 *******************************************************************************
 *  CALCULATION DONE:                                Fri Jul 25 15:25:19 2025  *
 *  PM7        - The PM7 Hamiltonian to be used
 *  XYZ        - CARTESIAN COORDINATE SYSTEM TO BE USED
 *  T=         - A TIME OF 172800.0 SECONDS REQUESTED
 *  DUMP=N     - RESTART FILE WRITTEN EVERY 7200.0 SECONDS REQUESTED
 *******************************************************************************
PM7 XYZ

 freesolv_93 - geometry optimisation
   ATOM   CHEMICAL          X               Y               Z
  NUMBER   SYMBOL      (ANGSTROMS)     (ANGSTROMS)     (ANGSTROMS)

     1       C         -1.51135200  *   0.12483300  *  -0.34092500  *
     2       C         -0.40792000  *   0.96545000  *  -0.17827500  *
     3       C          0.83972700  *   0.41994900  *   0.14412800  *
     4       C          0.95844600  *  -0.96660700  *   0.29837300  *
     5       N         -0.13062200  *  -1.76531300  *   0.13497200  *
     6       C         -1.35117200  *  -1.25344600  *  -0.17841800  *
     7       C          1.98620300  *   1.27320400  *   0.31497000  *
     8       N          2.90799400  *   1.95926700  *   0.45232700  *
     9       H         -2.48061800  *   0.53684800  *  -0.59030600  *
    10       H         -0.52649500  *   2.03506800  *  -0.30314100  *
    11       H          1.91299400  *  -1.41292700  *   0.54772300  *
    12       H         -2.19718500  *  -1.91632600  *  -0.30142800  *



          CARTESIAN COORDINATES 

    NO.       ATOM           X           Y           Z

     1         C         -1.5114      0.1248     -0.3409
     2         C         -0.4079      0.9654     -0.1783
     3         C          0.8397      0.4199      0.1441
     4         C          0.9584     -0.9666      0.2984
     5         N         -0.1306     -1.7653      0.1350
     6         C         -1.3512     -1.2534     -0.1784
     7         C          1.9862      1.2732      0.3150
     8         N          2.9080      1.9593      0.4523
     9         H         -2.4806      0.5368     -0.5903
    10         H         -0.5265      2.0351     -0.3031
    11         H          1.9130     -1.4129      0.5477
    12         H         -2.1972     -1.9163     -0.3014

 General Reference for PM7:
 "Optimization of Parameters for Semiempirical Methods VI: More Modifications to the 
 NDDO Approximations and Re-optimization of Parameters", J. J. P. Stewart, J. Mol. Mod., 1:32, 19 (2013)
 https://link.springer.com/article/10.1007/s00894-012-1667-x

           Empirical Formula: C6 H4 N2  =    12 atoms



      MOLECULAR POINT GROUP   :   Cs  


      RHF CALCULATION, NO. OF DOUBLY OCCUPIED LEVELS = 19


          Geometry optimization using EF

          DIAGONAL MATRIX USED AS START HESSIAN

 CYCLE:     1 TIME:   0.008 TIME LEFT:  2.00D  GRAD.:    66.275 HEAT:  65.99006
 CYCLE:     2 TIME:   0.016 TIME LEFT:  2.00D  GRAD.:    75.209 HEAT:  65.27359
 CYCLE:     3 TIME:   0.008 TIME LEFT:  2.00D  GRAD.:    77.970 HEAT:  65.02228
 CYCLE:     4 TIME:   0.008 TIME LEFT:  2.00D  GRAD.:    31.199 HEAT:  64.49512
 CYCLE:     5 TIME:   0.004 TIME LEFT:  2.00D  GRAD.:    36.792 HEAT:  64.36328
 CYCLE:     6 TIME:   0.004 TIME LEFT:  2.00D  GRAD.:    20.546 HEAT:  64.11745
 CYCLE:     7 TIME:   0.012 TIME LEFT:  2.00D  GRAD.:    13.970 HEAT:  64.03404
 CYCLE:     8 TIME:   0.004 TIME LEFT:  2.00D  GRAD.:    10.500 HEAT:  63.99277
 CYCLE:     9 TIME:   0.004 TIME LEFT:  2.00D  GRAD.:    15.028 HEAT:  63.98014
 CYCLE:    10 TIME:   0.004 TIME LEFT:  2.00D  GRAD.:     6.146 HEAT:  63.95041
 CYCLE:    11 TIME:   0.012 TIME LEFT:  2.00D  GRAD.:     3.786 HEAT:  63.94273
 CYCLE:    12 TIME:   0.004 TIME LEFT:  2.00D  GRAD.:     5.131 HEAT:  63.94136
 CYCLE:    13 TIME:   0.004 TIME LEFT:  2.00D  GRAD.:     5.315 HEAT:  63.94237
 CYCLE:    14 TIME:   0.004 TIME LEFT:  2.00D  GRAD.:     5.208 HEAT:  63.94036
 CYCLE:    15 TIME:   0.004 TIME LEFT:  2.00D  GRAD.:     5.231 HEAT:  63.94166
 CYCLE:    16 TIME:   0.004 TIME LEFT:  2.00D  GRAD.:     6.425 HEAT:  63.94062
 CYCLE:    17 TIME:   0.004 TIME LEFT:  2.00D  GRAD.:     5.105 HEAT:  63.94239
 CYCLE:    18 TIME:   0.004 TIME LEFT:  2.00D  GRAD.:     6.195 HEAT:  63.93884
 CYCLE:    19 TIME:   0.000 TIME LEFT:  2.00D  GRAD.:     4.047 HEAT:  63.93702
 CYCLE:    20 TIME:   0.004 TIME LEFT:  2.00D  GRAD.:     3.592 HEAT:  63.93862
 CYCLE:    21 TIME:   0.004 TIME LEFT:  2.00D  GRAD.:     3.638 HEAT:  63.93605
 CYCLE:    22 TIME:   0.004 TIME LEFT:  2.00D  GRAD.:     4.274 HEAT:  63.94150
 CYCLE:    23 TIME:   0.004 TIME LEFT:  2.00D  GRAD.:     1.410 HEAT:  63.93444
 CYCLE:    24 TIME:   0.004 TIME LEFT:  2.00D  GRAD.:     1.081 HEAT:  63.93444
 CYCLE:    25 TIME:   0.004 TIME LEFT:  2.00D  GRAD.:     0.926 HEAT:  63.93415

     GRADIENT =  0.92601 IS LESS THAN CUTOFF =  1.00000



 -------------------------------------------------------------------------------
 PM7 XYZ

 freesolv_93 - geometry optimisation


     GEOMETRY OPTIMISED USING EIGENVECTOR FOLLOWING (EF).     
     SCF FIELD WAS ACHIEVED                                   


                              PM7 CALCULATION
                                                       MOPAC v23.0.3 Linux
                                                       Fri Jul 25 15:25:19 2025




          FINAL HEAT OF FORMATION =         63.93415 KCAL/MOL =     267.50047 KJ/MOL


          COSMO AREA              =        140.27 SQUARE ANGSTROMS
          COSMO VOLUME            =        129.87 CUBIC ANGSTROMS

          GRADIENT NORM           =          0.92601          =       0.26732 PER ATOM
          IONIZATION POTENTIAL    =         10.727275 EV
          HOMO LUMO ENERGIES (EV) =        -10.727 -1.259
          NO. OF FILLED LEVELS    =         19
          MOLECULAR WEIGHT        =        104.1110         POINT GROUP:  Cs  

          MOLECULAR DIMENSIONS (Angstroms)

            Atom       Atom       Distance
            H    12    N     8     6.40942
            H    11    H    10     4.34259
            C     4    N     8     0.00026


          SCF CALCULATIONS        =         35

          WALL-CLOCK TIME         =      0.156 SECONDS
          COMPUTATION TIME        =      2.243 SECONDS




   ATOM   CHEMICAL          X               Y               Z
  NUMBER   SYMBOL      (ANGSTROMS)     (ANGSTROMS)     (ANGSTROMS)

     1       C         -1.50435979  *   0.13824765  *  -0.34062338  *
     2       C         -0.41317335  *   0.98622803  *  -0.18143056  *
     3       C          0.83196845  *   0.43337841  *   0.14110601  *
     4       C          0.93642478  *  -0.96318633  *   0.29317207  *
     5       N         -0.11943876  *  -1.77776290  *   0.13855962  *
     6       C         -1.31502239  *  -1.24080943  *  -0.17163462  *
     7       C          1.96883181  *   1.26037454  *   0.31234605  *
     8       N          2.89683003  *   1.93755111  *   0.45206122  *
     9       H         -2.48658459  *   0.53285925  *  -0.59114075  *
    10       H         -0.52152163  *   2.06560158  *  -0.30504244  *
    11       H          1.88921219  *  -1.44763529  *   0.54570546  *
    12       H         -2.14050693  *  -1.95633521  *  -0.28517813  *

                             CARTESIAN COORDINATES

   1    C       -1.504359788     0.138247648    -0.340623380
   2    C       -0.413173347     0.986228026    -0.181430565
   3    C        0.831968447     0.433378409     0.141106014
   4    C        0.936424781    -0.963186326     0.293172072
   5    N       -0.119438758    -1.777762899     0.138559624
   6    C       -1.315022393    -1.240809426    -0.171634616
   7    C        1.968831805     1.260374538     0.312346053
   8    N        2.896830027     1.937551111     0.452061216
   9    H       -2.486584593     0.532859250    -0.591140747
  10    H       -0.521521627     2.065601582    -0.305042436
  11    H        1.889212187    -1.447635290     0.545705460
  12    H       -2.140506929    -1.956335207    -0.285178129


           Empirical Formula: C6 H4 N2  =    12 atoms



      MOLECULAR POINT GROUP   :   Cs  


                  EIGENVALUES  
 -36.55170 -35.19702 -29.54017 -27.47258 -23.56836 -23.08811 -19.84353 -17.84602
 -17.45310 -15.75207 -15.58793 -14.63941 -14.22017 -14.05036 -13.76557 -13.17228
 -11.51168 -10.97634 -10.72728  -1.25896  -0.77330   0.81084   1.04944   1.86411
   2.55138   3.02905   3.46592   3.60130   3.72793   4.28876   4.57990   4.92313
   5.00935   5.21319   5.42123   5.60500


              NET ATOMIC CHARGES AND DIPOLE CONTRIBUTIONS

  ATOM NO.   TYPE          CHARGE      No. of ELECS.   s-Pop       p-Pop       
    1          C          -0.247401        4.2474     1.08841     3.15899
    2          C          -0.039261        4.0393     1.09185     2.94741
    3          C          -0.135187        4.1352     1.04432     3.09087
    4          C           0.094434        3.9056     1.10320     2.80236
    5          N          -0.364975        5.3650     1.74083     3.62415
    6          C           0.086590        3.9134     1.10387     2.80954
    7          C           0.109372        3.8906     1.09985     2.79078
    8          N          -0.213560        5.2136     1.83094     3.38262
    9          H           0.175810        0.8242     0.82419
   10          H           0.170806        0.8292     0.82919
   11          H           0.185924        0.8141     0.81408
   12          H           0.177448        0.8226     0.82255
 DIPOLE           X         Y         Z       TOTAL
 POINT-CHG.    -3.190    -0.609    -0.639     3.309
 HYBRID        -0.337     0.555    -0.125     0.661
 SUM           -3.526    -0.054    -0.764     3.608


          ATOMIC ORBITAL ELECTRON POPULATIONS

     Atom    s        px        py        pz   
    1  C   1.08841   1.08199   1.01408   1.06292
    2  C   1.09185   0.96137   1.08398   0.90207
    3  C   1.04432   0.97104   0.99644   1.12338
    4  C   1.10320   1.00282   0.91774   0.88180
    5  N   1.74083   1.06586   1.41115   1.14714
    6  C   1.10387   0.95883   0.98076   0.86994
    7  C   1.09985   0.92369   0.93091   0.93619
    8  N   1.83094   1.16931   1.12445   1.08886
    9  H   0.82419
   10  H   0.82919
   11  H   0.81408
   12  H   0.82255

 **********************
 *                    *
 * JOB ENDED NORMALLY *
 *                    *
 **********************



 TOTAL JOB TIME:             0.16 SECONDS

 == MOPAC DONE ==
