 *******************************************************************************
 **                                                                           **
 **                              MOPAC v23.0.3                                **
 **                                                                           **
 *******************************************************************************
 **          Digital Object Identifier (DOI): 10.5281/zenodo.6511958          **
 **    Visit the DOI location for information on how to cite this program.    **
 *******************************************************************************

                              PM7 CALCULATION RESULTS

 *******************************************************************************
 *  CALCULATION DONE:                                Fri Jul 25 15:24:26 2025  *
 *  PM7        - The PM7 Hamiltonian to be used
 *  XYZ        - CARTESIAN COORDINATE SYSTEM TO BE USED
 *  T=         - A TIME OF 172800.0 SECONDS REQUESTED
 *  DUMP=N     - RESTART FILE WRITTEN EVERY 7200.0 SECONDS REQUESTED
 *******************************************************************************
PM7 XYZ

 freesolv_401 - geometry optimisation
   ATOM   CHEMICAL          X               Y               Z
  NUMBER   SYMBOL      (ANGSTROMS)     (ANGSTROMS)     (ANGSTROMS)

     1       C         -1.77551600  *  -0.15942200  *   0.22495700  *
     2       C         -0.31007100  *  -0.56130300  *   0.08593300  *
     3       C          0.61885700  *   0.59704700  *   0.46369000  *
     4       C          2.05683100  *   0.20519900  *   0.30216900  *
     5       O          2.54558700  *  -0.66191000  *   1.00908900  *
     6       H         -1.99850300  *   0.12914500  *   1.27430600  *
     7       H         -2.00732700  *   0.69381300  *  -0.44762400  *
     8       H         -2.42407900  *  -1.01679600  *  -0.05301900  *
     9       H         -0.11857000  *  -0.86691500  *  -0.96612300  *
    10       H         -0.11329000  *  -1.43313400  *   0.74765900  *
    11       H          0.44146600  *   0.90062200  *   1.51833400  *
    12       H          0.41018300  *   1.46988600  *  -0.19237400  *
    13       H          2.67443100  *   0.70376800  *  -0.43782800  *



          CARTESIAN COORDINATES 

    NO.       ATOM           X           Y           Z

     1         C         -1.7755     -0.1594      0.2250
     2         C         -0.3101     -0.5613      0.0859
     3         C          0.6189      0.5970      0.4637
     4         C          2.0568      0.2052      0.3022
     5         O          2.5456     -0.6619      1.0091
     6         H         -1.9985      0.1291      1.2743
     7         H         -2.0073      0.6938     -0.4476
     8         H         -2.4241     -1.0168     -0.0530
     9         H         -0.1186     -0.8669     -0.9661
    10         H         -0.1133     -1.4331      0.7477
    11         H          0.4415      0.9006      1.5183
    12         H          0.4102      1.4699     -0.1924
    13         H          2.6744      0.7038     -0.4378

 General Reference for PM7:
 "Optimization of Parameters for Semiempirical Methods VI: More Modifications to the 
 NDDO Approximations and Re-optimization of Parameters", J. J. P. Stewart, J. Mol. Mod., 1:32, 19 (2013)
 https://link.springer.com/article/10.1007/s00894-012-1667-x

           Empirical Formula: C4 H8 O  =    13 atoms



      MOLECULAR POINT GROUP   :   C1  


      RHF CALCULATION, NO. OF DOUBLY OCCUPIED LEVELS = 15


          Geometry optimization using EF

          DIAGONAL MATRIX USED AS START HESSIAN

 CYCLE:     1 TIME:   0.004 TIME LEFT:  2.00D  GRAD.:    51.990 HEAT: -48.68074
 CYCLE:     2 TIME:   0.008 TIME LEFT:  2.00D  GRAD.:    45.144 HEAT: -49.00162
 CYCLE:     3 TIME:   0.004 TIME LEFT:  2.00D  GRAD.:    13.198 HEAT: -49.45269
 CYCLE:     4 TIME:   0.000 TIME LEFT:  2.00D  GRAD.:    20.715 HEAT: -49.56820
 CYCLE:     5 TIME:   0.004 TIME LEFT:  2.00D  GRAD.:    10.376 HEAT: -49.72008
 CYCLE:     6 TIME:   0.004 TIME LEFT:  2.00D  GRAD.:    10.498 HEAT: -49.74048
 CYCLE:     7 TIME:   0.000 TIME LEFT:  2.00D  GRAD.:     9.314 HEAT: -49.74169
 CYCLE:     8 TIME:   0.004 TIME LEFT:  2.00D  GRAD.:    10.640 HEAT: -49.74834
 CYCLE:     9 TIME:   0.004 TIME LEFT:  2.00D  GRAD.:     7.761 HEAT: -49.75990
 CYCLE:    10 TIME:   0.004 TIME LEFT:  2.00D  GRAD.:     4.841 HEAT: -49.78121
 CYCLE:    11 TIME:   0.004 TIME LEFT:  2.00D  GRAD.:     2.502 HEAT: -49.78698
 CYCLE:    12 TIME:   0.004 TIME LEFT:  2.00D  GRAD.:     3.376 HEAT: -49.78800
 CYCLE:    13 TIME:   0.000 TIME LEFT:  2.00D  GRAD.:     3.609 HEAT: -49.78817
 CYCLE:    14 TIME:   0.004 TIME LEFT:  2.00D  GRAD.:     5.094 HEAT: -49.78703
 CYCLE:    15 TIME:   0.004 TIME LEFT:  2.00D  GRAD.:     3.221 HEAT: -49.79018
 CYCLE:    16 TIME:   0.000 TIME LEFT:  2.00D  GRAD.:     6.130 HEAT: -49.78407
 CYCLE:    17 TIME:   0.004 TIME LEFT:  2.00D  GRAD.:     2.871 HEAT: -49.79232
 CYCLE:    18 TIME:   0.004 TIME LEFT:  2.00D  GRAD.:     3.446 HEAT: -49.79289
 CYCLE:    19 TIME:   0.008 TIME LEFT:  2.00D  GRAD.:     1.445 HEAT: -49.79534
 CYCLE:    20 TIME:   0.000 TIME LEFT:  2.00D  GRAD.:     4.904 HEAT: -49.78817
 CYCLE:    21 TIME:   0.004 TIME LEFT:  2.00D  GRAD.:     0.423 HEAT: -49.79651

     GRADIENT =  0.42322 IS LESS THAN CUTOFF =  1.00000



 -------------------------------------------------------------------------------
 PM7 XYZ

 freesolv_401 - geometry optimisation


     GEOMETRY OPTIMISED USING EIGENVECTOR FOLLOWING (EF).     
     SCF FIELD WAS ACHIEVED                                   


                              PM7 CALCULATION
                                                       MOPAC v23.0.3 Linux
                                                       Fri Jul 25 15:24:26 2025




          FINAL HEAT OF FORMATION =        -49.79651 KCAL/MOL =    -208.34861 KJ/MOL


          COSMO AREA              =        120.53 SQUARE ANGSTROMS
          COSMO VOLUME            =        106.59 CUBIC ANGSTROMS

          GRADIENT NORM           =          0.42322          =       0.11738 PER ATOM
          IONIZATION POTENTIAL    =         10.146706 EV
          HOMO LUMO ENERGIES (EV) =        -10.147  0.668
          NO. OF FILLED LEVELS    =         15
          MOLECULAR WEIGHT        =         72.1066         POINT GROUP:  C1  

          MOLECULAR DIMENSIONS (Angstroms)

            Atom       Atom       Distance
            H    13    H     8     5.38112
            H     7    O     5     3.22143
            H     9    H    11     2.97156


          SCF CALCULATIONS        =         29

          WALL-CLOCK TIME         =      0.082 SECONDS
          COMPUTATION TIME        =      1.616 SECONDS




   ATOM   CHEMICAL          X               Y               Z
  NUMBER   SYMBOL      (ANGSTROMS)     (ANGSTROMS)     (ANGSTROMS)

     1       C         -1.76836422  *  -0.16372249  *   0.22560153  *
     2       C         -0.29976804  *  -0.55753587  *   0.08283741  *
     3       C          0.61746826  *   0.61528901  *   0.45560687  *
     4       C          2.05657603  *   0.19104788  *   0.31370276  *
     5       O          2.53749623  *  -0.67178419  *   1.00470799  *
     6       H         -2.00869045  *   0.12768412  *   1.25444092  *
     7       H         -2.02644943  *   0.67865955  *  -0.42551180  *
     8       H         -2.42954106  *  -0.99708381  *  -0.03967063  *
     9       H         -0.09467802  *  -0.89084499  *  -0.95230855  *
    10       H         -0.07266059  *  -1.42857027  *   0.73220236  *
    11       H          0.42260399  *   0.92308700  *   1.50465590  *
    12       H          0.38966665  *   1.49800935  *  -0.16769656  *
    13       H          2.66171437  *   0.69650805  *  -0.44877631  *

                             CARTESIAN COORDINATES

   1    C       -1.768364225    -0.163722488     0.225601530
   2    C       -0.299768042    -0.557535865     0.082837415
   3    C        0.617468265     0.615289011     0.455606866
   4    C        2.056576027     0.191047882     0.313702760
   5    O        2.537496231    -0.671784187     1.004707986
   6    H       -2.008690446     0.127684115     1.254440916
   7    H       -2.026449425     0.678659552    -0.425511801
   8    H       -2.429541057    -0.997083806    -0.039670635
   9    H       -0.094678025    -0.890844987    -0.952308552
  10    H       -0.072660591    -1.428570273     0.732202358
  11    H        0.422603987     0.923086999     1.504655901
  12    H        0.389666650     1.498009348    -0.167696559
  13    H        2.661714372     0.696508053    -0.448776311


           Empirical Formula: C4 H8 O  =    13 atoms



      MOLECULAR POINT GROUP   :   C1  


                  EIGENVALUES  
 -31.12328 -28.61262 -25.15945 -21.36233 -19.96366 -16.92921 -15.89079 -15.13649
 -14.72280 -13.63634 -13.19518 -12.92939 -12.25820 -11.71212 -10.14671   0.66806
   3.33352   3.92961   4.29498   4.80718   4.85416   5.25815   5.56252   5.63496
   5.87689   6.12029   6.35260   6.80440


              NET ATOMIC CHARGES AND DIPOLE CONTRIBUTIONS

  ATOM NO.   TYPE          CHARGE      No. of ELECS.   s-Pop       p-Pop       
    1          C          -0.440032        4.4400     1.05201     3.38802
    2          C          -0.226589        4.2266     1.05306     3.17353
    3          C          -0.396337        4.3963     1.07230     3.32403
    4          C           0.347025        3.6530     1.14372     2.50925
    5          O          -0.436637        6.4366     1.87750     4.55914
    6          H           0.145896        0.8541     0.85410
    7          H           0.142357        0.8576     0.85764
    8          H           0.145416        0.8546     0.85458
    9          H           0.135087        0.8649     0.86491
   10          H           0.153556        0.8464     0.84644
   11          H           0.173009        0.8270     0.82699
   12          H           0.153079        0.8469     0.84692
   13          H           0.104170        0.8958     0.89583
 DIPOLE           X         Y         Z       TOTAL
 POINT-CHG.    -1.641     1.951    -1.633     3.028
 HYBRID        -0.031    -0.058     0.189     0.200
 SUM           -1.672     1.894    -1.445     2.910


          ATOMIC ORBITAL ELECTRON POPULATIONS

     Atom    s        px        py        pz   
    1  C   1.05201   1.04580   1.16661   1.17562
    2  C   1.05306   0.97548   1.04546   1.15259
    3  C   1.07230   1.04539   1.09512   1.18352
    4  C   1.14372   0.91388   0.77847   0.81691
    5  O   1.87750   1.76794   1.32705   1.46416
    6  H   0.85410
    7  H   0.85764
    8  H   0.85458
    9  H   0.86491
   10  H   0.84644
   11  H   0.82699
   12  H   0.84692
   13  H   0.89583

 **********************
 *                    *
 * JOB ENDED NORMALLY *
 *                    *
 **********************



 TOTAL JOB TIME:             0.09 SECONDS

 == MOPAC DONE ==
