 *******************************************************************************
 **                                                                           **
 **                              MOPAC v23.0.3                                **
 **                                                                           **
 *******************************************************************************
 **          Digital Object Identifier (DOI): 10.5281/zenodo.6511958          **
 **    Visit the DOI location for information on how to cite this program.    **
 *******************************************************************************

                              PM7 CALCULATION RESULTS

 *******************************************************************************
 *  CALCULATION DONE:                                Fri Jul 25 15:23:19 2025  *
 *  PM7        - The PM7 Hamiltonian to be used
 *  XYZ        - CARTESIAN COORDINATE SYSTEM TO BE USED
 *  T=         - A TIME OF 172800.0 SECONDS REQUESTED
 *  DUMP=N     - RESTART FILE WRITTEN EVERY 7200.0 SECONDS REQUESTED
 *******************************************************************************
PM7 XYZ

 freesolv_305 - geometry optimisation
   ATOM   CHEMICAL          X               Y               Z
  NUMBER   SYMBOL      (ANGSTROMS)     (ANGSTROMS)     (ANGSTROMS)

     1       C         -3.13380300  *   0.29115500  *   0.91773700  *
     2       C         -3.15500600  *   0.00057900  *  -0.57847400  *
     3       O         -1.82874200  *  -0.15916900  *  -1.07733700  *
     4       C         -0.95598800  *   0.91170500  *  -1.30103500  *
     5       O         -1.33376900  *   2.10183800  *  -1.12198200  *
     6       C          0.45184700  *   0.63483100  *  -1.71404100  *
     7       C          1.28869100  *   0.37394700  *  -0.50509800  *
     8       O          1.95055500  *   1.31437700  *   0.01324600  *
     9       O          1.28514900  *  -0.90208100  *   0.06979100  *
    10       C          2.05796300  *  -1.24832800  *   1.21722700  *
    11       C          3.52577100  *  -1.42300200  *   0.84516700  *
    12       H         -2.61990000  *   1.25435400  *   1.11807500  *
    13       H         -4.17409700  *   0.35565800  *   1.30039600  *
    14       H         -2.60229400  *  -0.52328200  *   1.45403700  *
    15       H         -3.67923700  *   0.81558600  *  -1.12341200  *
    16       H         -3.71334700  *  -0.94365700  *  -0.75029600  *
    17       H          0.86010400  *   1.49807700  *  -2.28363700  *
    18       H          0.47452100  *  -0.25550700  *  -2.37767300  *
    19       H          1.94880600  *  -0.47290100  *   2.00642500  *
    20       H          1.67644500  *  -2.20875100  *   1.62329200  *
    21       H          3.62635200  *  -2.19450700  *   0.05273100  *
    22       H          3.94891400  *  -0.46526400  *   0.47692600  *
    23       H          4.10106600  *  -1.74678600  *   1.73793500  *



          CARTESIAN COORDINATES 

    NO.       ATOM           X           Y           Z

     1         C         -3.1338      0.2912      0.9177
     2         C         -3.1550      0.0006     -0.5785
     3         O         -1.8287     -0.1592     -1.0773
     4         C         -0.9560      0.9117     -1.3010
     5         O         -1.3338      2.1018     -1.1220
     6         C          0.4518      0.6348     -1.7140
     7         C          1.2887      0.3739     -0.5051
     8         O          1.9506      1.3144      0.0132
     9         O          1.2851     -0.9021      0.0698
    10         C          2.0580     -1.2483      1.2172
    11         C          3.5258     -1.4230      0.8452
    12         H         -2.6199      1.2544      1.1181
    13         H         -4.1741      0.3557      1.3004
    14         H         -2.6023     -0.5233      1.4540
    15         H         -3.6792      0.8156     -1.1234
    16         H         -3.7133     -0.9437     -0.7503
    17         H          0.8601      1.4981     -2.2836
    18         H          0.4745     -0.2555     -2.3777
    19         H          1.9488     -0.4729      2.0064
    20         H          1.6764     -2.2088      1.6233
    21         H          3.6264     -2.1945      0.0527
    22         H          3.9489     -0.4653      0.4769
    23         H          4.1011     -1.7468      1.7379

 General Reference for PM7:
 "Optimization of Parameters for Semiempirical Methods VI: More Modifications to the 
 NDDO Approximations and Re-optimization of Parameters", J. J. P. Stewart, J. Mol. Mod., 1:32, 19 (2013)
 https://link.springer.com/article/10.1007/s00894-012-1667-x

           Empirical Formula: C7 H12 O4  =    23 atoms



      MOLECULAR POINT GROUP   :   C1  


      RHF CALCULATION, NO. OF DOUBLY OCCUPIED LEVELS = 32


          Geometry optimization using EF

          DIAGONAL MATRIX USED AS START HESSIAN

 CYCLE:     1 TIME:   0.020 TIME LEFT:  2.00D  GRAD.:   246.311 HEAT: -169.5308
 CYCLE:     2 TIME:   0.027 TIME LEFT:  2.00D  GRAD.:   125.567 HEAT: -179.2320
 CYCLE:     3 TIME:   0.012 TIME LEFT:  2.00D  GRAD.:    96.911 HEAT: -182.1271
 CYCLE:     4 TIME:   0.008 TIME LEFT:  2.00D  GRAD.:    66.097 HEAT: -185.6537
 CYCLE:     5 TIME:   0.012 TIME LEFT:  2.00D  GRAD.:    93.711 HEAT: -185.7347
 CYCLE:     6 TIME:   0.012 TIME LEFT:  2.00D  GRAD.:    82.531 HEAT: -188.0192
 CYCLE:     7 TIME:   0.016 TIME LEFT:  2.00D  GRAD.:    47.488 HEAT: -189.0871
 CYCLE:     8 TIME:   0.016 TIME LEFT:  2.00D  GRAD.:    61.404 HEAT: -189.3311
 CYCLE:     9 TIME:   0.016 TIME LEFT:  2.00D  GRAD.:    37.099 HEAT: -189.6610
 CYCLE:    10 TIME:   0.016 TIME LEFT:  2.00D  GRAD.:    30.707 HEAT: -189.9150
 CYCLE:    11 TIME:   0.016 TIME LEFT:  2.00D  GRAD.:    28.469 HEAT: -190.1143
 CYCLE:    12 TIME:   0.016 TIME LEFT:  2.00D  GRAD.:    24.934 HEAT: -190.2491
 CYCLE:    13 TIME:   0.031 TIME LEFT:  2.00D  GRAD.:    31.290 HEAT: -190.3042
 CYCLE:    14 TIME:   0.016 TIME LEFT:  2.00D  GRAD.:    14.681 HEAT: -190.4629
 CYCLE:    15 TIME:   0.035 TIME LEFT:  2.00D  GRAD.:    10.060 HEAT: -190.5176
 CYCLE:    16 TIME:   0.016 TIME LEFT:  2.00D  GRAD.:     4.862 HEAT: -190.5602
 CYCLE:    17 TIME:   0.016 TIME LEFT:  2.00D  GRAD.:     6.409 HEAT: -190.6048
 CYCLE:    18 TIME:   0.016 TIME LEFT:  2.00D  GRAD.:     6.176 HEAT: -190.6552
 CYCLE:    19 TIME:   0.016 TIME LEFT:  2.00D  GRAD.:     6.848 HEAT: -190.7103
 CYCLE:    20 TIME:   0.016 TIME LEFT:  2.00D  GRAD.:     6.979 HEAT: -190.7569
 CYCLE:    21 TIME:   0.023 TIME LEFT:  2.00D  GRAD.:    10.729 HEAT: -190.7596
 CYCLE:    22 TIME:   0.016 TIME LEFT:  2.00D  GRAD.:    10.947 HEAT: -190.7727
 CYCLE:    23 TIME:   0.023 TIME LEFT:  2.00D  GRAD.:     5.283 HEAT: -190.8104
 CYCLE:    24 TIME:   0.027 TIME LEFT:  2.00D  GRAD.:     4.408 HEAT: -190.8188
 CYCLE:    25 TIME:   0.016 TIME LEFT:  2.00D  GRAD.:     3.653 HEAT: -190.8244
 CYCLE:    26 TIME:   0.016 TIME LEFT:  2.00D  GRAD.:     4.249 HEAT: -190.8274
 CYCLE:    27 TIME:   0.016 TIME LEFT:  2.00D  GRAD.:     4.515 HEAT: -190.8274
 CYCLE:    28 TIME:   0.016 TIME LEFT:  2.00D  GRAD.:     3.876 HEAT: -190.8327
 CYCLE:    29 TIME:   0.016 TIME LEFT:  2.00D  GRAD.:     3.459 HEAT: -190.8344
 CYCLE:    30 TIME:   0.016 TIME LEFT:  2.00D  GRAD.:     5.668 HEAT: -190.8301
 CYCLE:    31 TIME:   0.016 TIME LEFT:  2.00D  GRAD.:     2.829 HEAT: -190.8380
 CYCLE:    32 TIME:   0.016 TIME LEFT:  2.00D  GRAD.:     5.601 HEAT: -190.8307
 CYCLE:    33 TIME:   0.012 TIME LEFT:  2.00D  GRAD.:     1.514 HEAT: -190.8424
 CYCLE:    34 TIME:   0.020 TIME LEFT:  2.00D  GRAD.:     4.355 HEAT: -190.8374
 CYCLE:    35 TIME:   0.016 TIME LEFT:  2.00D  GRAD.:     2.709 HEAT: -190.8423
 CYCLE:    36 TIME:   0.016 TIME LEFT:  2.00D  GRAD.:     5.391 HEAT: -190.8331
 CYCLE:    37 TIME:   0.016 TIME LEFT:  2.00D  GRAD.:     3.026 HEAT: -190.8439
 CYCLE:    38 TIME:   0.043 TIME LEFT:  2.00D  GRAD.:     1.109 HEAT: -190.8477
 CYCLE:    39 TIME:   0.016 TIME LEFT:  2.00D  GRAD.:     2.160 HEAT: -190.8478
 CYCLE:    40 TIME:   0.016 TIME LEFT:  2.00D  GRAD.:     2.105 HEAT: -190.8511
 CYCLE:    41 TIME:   0.016 TIME LEFT:  2.00D  GRAD.:     4.495 HEAT: -190.8506
 CYCLE:    42 TIME:   0.012 TIME LEFT:  2.00D  GRAD.:     4.026 HEAT: -190.8548
 CYCLE:    43 TIME:   0.020 TIME LEFT:  2.00D  GRAD.:     3.409 HEAT: -190.8599
 CYCLE:    44 TIME:   0.016 TIME LEFT:  2.00D  GRAD.:     1.309 HEAT: -190.8673
 CYCLE:    45 TIME:   0.016 TIME LEFT:  2.00D  GRAD.:     5.633 HEAT: -190.8576
 CYCLE:    46 TIME:   0.016 TIME LEFT:  2.00D  GRAD.:     0.834 HEAT: -190.8701

     GRADIENT =  0.83356 IS LESS THAN CUTOFF =  1.00000



 -------------------------------------------------------------------------------
 PM7 XYZ

 freesolv_305 - geometry optimisation


     GEOMETRY OPTIMISED USING EIGENVECTOR FOLLOWING (EF).     
     SCF FIELD WAS ACHIEVED                                   


                              PM7 CALCULATION
                                                       MOPAC v23.0.3 Linux
                                                       Fri Jul 25 15:23:20 2025




          FINAL HEAT OF FORMATION =       -190.87008 KCAL/MOL =    -798.60041 KJ/MOL


          COSMO AREA              =        198.20 SQUARE ANGSTROMS
          COSMO VOLUME            =        200.62 CUBIC ANGSTROMS

          GRADIENT NORM           =          0.83356          =       0.17381 PER ATOM
          IONIZATION POTENTIAL    =         10.946228 EV
          HOMO LUMO ENERGIES (EV) =        -10.946  0.515
          NO. OF FILLED LEVELS    =         32
          MOLECULAR WEIGHT        =        160.1694         POINT GROUP:  C1  

          MOLECULAR DIMENSIONS (Angstroms)

            Atom       Atom       Distance
            H    23    H    15     8.53061
            H    17    H    13     5.45795
            H    16    O     8     3.15591


          SCF CALCULATIONS        =         58

          WALL-CLOCK TIME         =      0.840 SECONDS
          COMPUTATION TIME        =      5.843 SECONDS




   ATOM   CHEMICAL          X               Y               Z
  NUMBER   SYMBOL      (ANGSTROMS)     (ANGSTROMS)     (ANGSTROMS)

     1       C         -3.06505445  *   0.30573160  *   0.88838696  *
     2       C         -3.07363227  *   0.02381792  *  -0.60382685  *
     3       O         -1.73270344  *  -0.16019864  *  -1.06880180  *
     4       C         -0.97479879  *   0.94675285  *  -1.23800865  *
     5       O         -1.38811365  *   2.06703100  *  -1.11114556  *
     6       C          0.41496886  *   0.53173475  *  -1.64112008  *
     7       C          1.28580007  *   0.39914405  *  -0.42073039  *
     8       O          1.94898188  *   1.26002293  *   0.09091349  *
     9       O          1.22915117  *  -0.87409469  *   0.03114669  *
    10       C          2.01476708  *  -1.19670494  *   1.18361038  *
    11       C          3.46771986  *  -1.38228536  *   0.78225001  *
    12       H         -2.59814394  *   1.27754936  *   1.10725895  *
    13       H         -4.08190737  *   0.33059846  *   1.29711374  *
    14       H         -2.50055932  *  -0.45888962  *   1.43733792  *
    15       H         -3.56306743  *   0.82575422  *  -1.18516512  *
    16       H         -3.52290985  *  -0.95661609  *  -0.85307667  *
    17       H          0.84960168  *   1.30140480  *  -2.32355303  *
    18       H          0.38893269  *  -0.42787862  *  -2.21030560  *
    19       H          1.88482715  *  -0.41442067  *   1.95318570  *
    20       H          1.53595086  *  -2.13816634  *   1.51373327  *
    21       H          3.56949236  *  -2.10148912  *  -0.03954728  *
    22       H          3.91052137  *  -0.43343352  *   0.44498747  *
    23       H          4.07135360  *  -1.74493692  *   1.62170781  *

                             CARTESIAN COORDINATES

   1    C       -3.065054447     0.305731596     0.888386963
   2    C       -3.073632273     0.023817922    -0.603826847
   3    O       -1.732703442    -0.160198639    -1.068801800
   4    C       -0.974798795     0.946752846    -1.238008655
   5    O       -1.388113648     2.067031001    -1.111145558
   6    C        0.414968861     0.531734751    -1.641120083
   7    C        1.285800073     0.399144055    -0.420730393
   8    O        1.948981877     1.260022929     0.090913489
   9    O        1.229151175    -0.874094686     0.031146694
  10    C        2.014767077    -1.196704943     1.183610381
  11    C        3.467719856    -1.382285359     0.782250011
  12    H       -2.598143941     1.277549362     1.107258953
  13    H       -4.081907366     0.330598464     1.297113744
  14    H       -2.500559317    -0.458889620     1.437337923
  15    H       -3.563067433     0.825754218    -1.185165123
  16    H       -3.522909851    -0.956616093    -0.853076671
  17    H        0.849601679     1.301404803    -2.323553027
  18    H        0.388932694    -0.427878618    -2.210305602
  19    H        1.884827149    -0.414420674     1.953185704
  20    H        1.535950859    -2.138166338     1.513733274
  21    H        3.569492365    -2.101489123    -0.039547282
  22    H        3.910521369    -0.433433521     0.444987474
  23    H        4.071353597    -1.744936916     1.621707814


           Empirical Formula: C7 H12 O4  =    23 atoms



      MOLECULAR POINT GROUP   :   C1  


                  EIGENVALUES  
 -31.82677 -31.50282 -30.37232 -30.19727 -28.32446 -27.05059 -26.30965 -22.97961
 -22.02287 -20.66698 -19.80411 -17.69228 -17.59168 -17.01304 -16.62507 -15.83569
 -15.76087 -15.00247 -14.93698 -14.48167 -14.07895 -13.86104 -13.57573 -13.48101
 -12.93839 -12.91734 -12.19723 -12.17402 -11.39912 -11.37931 -11.10802 -10.94623
   0.51544   0.85199   1.49253   1.56360   2.94844   3.16033   3.84592   3.87310
   3.96257   4.00010   4.37920   4.92428   5.03126   5.18442   5.20927   5.43426
   5.51747   5.57733   5.67101   5.69811   5.76398   5.79910   6.71719   6.75177


              NET ATOMIC CHARGES AND DIPOLE CONTRIBUTIONS

  ATOM NO.   TYPE          CHARGE      No. of ELECS.   s-Pop       p-Pop       
    1          C          -0.483158        4.4832     1.05704     3.42612
    2          C           0.009683        3.9903     1.09000     2.90032
    3          O          -0.419542        6.4195     1.86653     4.55301
    4          C           0.613357        3.3866     1.10754     2.27910
    5          O          -0.474456        6.4745     1.87657     4.59789
    6          C          -0.437290        4.4373     1.07801     3.35928
    7          C           0.612103        3.3879     1.10796     2.27994
    8          O          -0.475725        6.4757     1.87663     4.59909
    9          O          -0.418251        6.4183     1.86682     4.55143
   10          C           0.010048        3.9900     1.08992     2.90003
   11          C          -0.481847        4.4818     1.05674     3.42511
   12          H           0.170263        0.8297     0.82974
   13          H           0.155179        0.8448     0.84482
   14          H           0.159259        0.8407     0.84074
   15          H           0.138521        0.8615     0.86148
   16          H           0.139680        0.8603     0.86032
   17          H           0.211904        0.7881     0.78810
   18          H           0.209804        0.7902     0.79020
   19          H           0.139543        0.8605     0.86046
   20          H           0.140292        0.8597     0.85971
   21          H           0.156776        0.8432     0.84322
   22          H           0.169526        0.8305     0.83047
   23          H           0.154331        0.8457     0.84567
 DIPOLE           X         Y         Z       TOTAL
 POINT-CHG.    -0.558    -3.438     0.018     3.483
 HYBRID         0.125     0.073    -0.008     0.145
 SUM           -0.433    -3.365     0.010     3.393


          ATOMIC ORBITAL ELECTRON POPULATIONS

     Atom    s        px        py        pz   
    1  C   1.05704   1.18227   1.19607   1.04778
    2  C   1.09000   0.78544   1.13202   0.98285
    3  O   1.86653   1.34365   1.43092   1.77844
    4  C   1.10754   0.81900   0.77259   0.68751
    5  O   1.87657   1.75901   1.32276   1.51612
    6  C   1.07801   1.04660   1.21309   1.09958
    7  C   1.10796   0.74207   0.75441   0.78346
    8  O   1.87663   1.46068   1.51492   1.62350
    9  O   1.86682   1.65689   1.38907   1.50547
   10  C   1.08992   0.92908   1.10170   0.86925
   11  C   1.05674   1.05415   1.19629   1.17466
   12  H   0.82974
   13  H   0.84482
   14  H   0.84074
   15  H   0.86148
   16  H   0.86032
   17  H   0.78810
   18  H   0.79020
   19  H   0.86046
   20  H   0.85971
   21  H   0.84322
   22  H   0.83047
   23  H   0.84567

 **********************
 *                    *
 * JOB ENDED NORMALLY *
 *                    *
 **********************



 TOTAL JOB TIME:             0.84 SECONDS

 == MOPAC DONE ==
