 *******************************************************************************
 **                                                                           **
 **                              MOPAC v23.0.3                                **
 **                                                                           **
 *******************************************************************************
 **          Digital Object Identifier (DOI): 10.5281/zenodo.6511958          **
 **    Visit the DOI location for information on how to cite this program.    **
 *******************************************************************************

                              PM7 CALCULATION RESULTS

 *******************************************************************************
 *  CALCULATION DONE:                                Fri Jul 25 15:24:28 2025  *
 *  PM7        - The PM7 Hamiltonian to be used
 *  XYZ        - CARTESIAN COORDINATE SYSTEM TO BE USED
 *  T=         - A TIME OF 172800.0 SECONDS REQUESTED
 *  DUMP=N     - RESTART FILE WRITTEN EVERY 7200.0 SECONDS REQUESTED
 *******************************************************************************
PM7 XYZ

 freesolv_404 - geometry optimisation
   ATOM   CHEMICAL          X               Y               Z
  NUMBER   SYMBOL      (ANGSTROMS)     (ANGSTROMS)     (ANGSTROMS)

     1       C         -1.99833500  *  -0.88256000  *  -0.73740000  *
     2       C         -2.06172000  *  -0.02457300  *   0.53285900  *
     3       C         -3.48431400  *   0.51070100  *   0.73687900  *
     4       C         -1.05647200  *   1.14116800  *   0.48601800  *
     5       O          0.28704900  *   0.65841200  *   0.47529800  *
     6       C          1.04347600  *   0.48042900  *  -0.69043700  *
     7       O          0.58313500  *   0.81752900  *  -1.81550400  *
     8       C          2.41291500  *  -0.12994600  *  -0.60083300  *
     9       C          2.31468700  *  -1.57315400  *  -0.09918500  *
    10       C          3.31158900  *   0.70736200  *   0.31349300  *
    11       H         -1.01018200  *  -1.38080900  *  -0.81939300  *
    12       H         -2.17003400  *  -0.25958300  *  -1.64136300  *
    13       H         -2.77087100  *  -1.68012500  *  -0.70133500  *
    14       H         -1.81026000  *  -0.67094100  *   1.40282400  *
    15       H         -3.54344200  *   1.09620500  *   1.67918000  *
    16       H         -4.20506500  *  -0.33147200  *   0.81171200  *
    17       H         -3.78226000  *   1.16418300  *  -0.11132000  *
    18       H         -1.25302100  *   1.80558500  *  -0.38440800  *
    19       H         -1.18190200  *   1.75728200  *   1.40202800  *
    20       H          2.87208800  *  -0.14648600  *  -1.61457500  *
    21       H          3.32352800  *  -2.03755100  *  -0.07239100  *
    22       H          1.67540000  *  -2.17176000  *  -0.78314400  *
    23       H          1.87736500  *  -1.60776500  *   0.92216400  *
    24       H          3.37936100  *   1.74871300  *  -0.06821700  *
    25       H          4.33646300  *   0.27922500  *   0.33653300  *
    26       H          2.91082100  *   0.72993300  *   1.34999800  *



          CARTESIAN COORDINATES 

    NO.       ATOM           X           Y           Z

     1         C         -1.9983     -0.8826     -0.7374
     2         C         -2.0617     -0.0246      0.5329
     3         C         -3.4843      0.5107      0.7369
     4         C         -1.0565      1.1412      0.4860
     5         O          0.2870      0.6584      0.4753
     6         C          1.0435      0.4804     -0.6904
     7         O          0.5831      0.8175     -1.8155
     8         C          2.4129     -0.1299     -0.6008
     9         C          2.3147     -1.5732     -0.0992
    10         C          3.3116      0.7074      0.3135
    11         H         -1.0102     -1.3808     -0.8194
    12         H         -2.1700     -0.2596     -1.6414
    13         H         -2.7709     -1.6801     -0.7013
    14         H         -1.8103     -0.6709      1.4028
    15         H         -3.5434      1.0962      1.6792
    16         H         -4.2051     -0.3315      0.8117
    17         H         -3.7823      1.1642     -0.1113
    18         H         -1.2530      1.8056     -0.3844
    19         H         -1.1819      1.7573      1.4020
    20         H          2.8721     -0.1465     -1.6146
    21         H          3.3235     -2.0376     -0.0724
    22         H          1.6754     -2.1718     -0.7831
    23         H          1.8774     -1.6078      0.9222
    24         H          3.3794      1.7487     -0.0682
    25         H          4.3365      0.2792      0.3365
    26         H          2.9108      0.7299      1.3500

 General Reference for PM7:
 "Optimization of Parameters for Semiempirical Methods VI: More Modifications to the 
 NDDO Approximations and Re-optimization of Parameters", J. J. P. Stewart, J. Mol. Mod., 1:32, 19 (2013)
 https://link.springer.com/article/10.1007/s00894-012-1667-x

           Empirical Formula: C8 H16 O2  =    26 atoms



      MOLECULAR POINT GROUP   :   C1  


      RHF CALCULATION, NO. OF DOUBLY OCCUPIED LEVELS = 30


          Geometry optimization using EF

          DIAGONAL MATRIX USED AS START HESSIAN

 CYCLE:     1 TIME:   0.020 TIME LEFT:  2.00D  GRAD.:   161.220 HEAT: -114.4257
 CYCLE:     2 TIME:   0.027 TIME LEFT:  2.00D  GRAD.:   209.165 HEAT: -115.3743
 CYCLE:     3 TIME:   0.012 TIME LEFT:  2.00D  GRAD.:   112.066 HEAT: -118.6534
 CYCLE:     4 TIME:   0.016 TIME LEFT:  2.00D  GRAD.:   107.379 HEAT: -119.7433
 CYCLE:     5 TIME:   0.012 TIME LEFT:  2.00D  GRAD.:    61.051 HEAT: -121.8213
 CYCLE:     6 TIME:   0.023 TIME LEFT:  2.00D  GRAD.:    63.639 HEAT: -122.6480
 CYCLE:     7 TIME:   0.012 TIME LEFT:  2.00D  GRAD.:    46.255 HEAT: -123.0167
 CYCLE:     8 TIME:   0.008 TIME LEFT:  2.00D  GRAD.:    62.947 HEAT: -123.2815
 CYCLE:     9 TIME:   0.012 TIME LEFT:  2.00D  GRAD.:    39.605 HEAT: -123.5960
 CYCLE:    10 TIME:   0.020 TIME LEFT:  2.00D  GRAD.:    30.253 HEAT: -124.1148
 CYCLE:    11 TIME:   0.008 TIME LEFT:  2.00D  GRAD.:    23.902 HEAT: -124.1512
 CYCLE:    12 TIME:   0.012 TIME LEFT:  2.00D  GRAD.:    38.560 HEAT: -124.1927
 CYCLE:    13 TIME:   0.016 TIME LEFT:  2.00D  GRAD.:    10.977 HEAT: -124.4820
 CYCLE:    14 TIME:   0.031 TIME LEFT:  2.00D  GRAD.:    13.725 HEAT: -124.5257
 CYCLE:    15 TIME:   0.016 TIME LEFT:  2.00D  GRAD.:     7.146 HEAT: -124.5882
 CYCLE:    16 TIME:   0.008 TIME LEFT:  2.00D  GRAD.:    16.593 HEAT: -124.6169
 CYCLE:    17 TIME:   0.012 TIME LEFT:  2.00D  GRAD.:     8.032 HEAT: -124.7079
 CYCLE:    18 TIME:   0.031 TIME LEFT:  2.00D  GRAD.:    10.342 HEAT: -124.7259
 CYCLE:    19 TIME:   0.008 TIME LEFT:  2.00D  GRAD.:     4.054 HEAT: -124.7698
 CYCLE:    20 TIME:   0.012 TIME LEFT:  2.00D  GRAD.:    10.758 HEAT: -124.7928
 CYCLE:    21 TIME:   0.012 TIME LEFT:  2.00D  GRAD.:     4.132 HEAT: -124.8653
 CYCLE:    22 TIME:   0.012 TIME LEFT:  2.00D  GRAD.:    12.687 HEAT: -124.8884
 CYCLE:    23 TIME:   0.012 TIME LEFT:  2.00D  GRAD.:     5.248 HEAT: -124.9886
 CYCLE:    24 TIME:   0.047 TIME LEFT:  2.00D  GRAD.:     3.141 HEAT: -124.9988
 CYCLE:    25 TIME:   0.012 TIME LEFT:  2.00D  GRAD.:     2.674 HEAT: -125.0059
 CYCLE:    26 TIME:   0.012 TIME LEFT:  2.00D  GRAD.:     2.496 HEAT: -125.0152
 CYCLE:    27 TIME:   0.012 TIME LEFT:  2.00D  GRAD.:     2.689 HEAT: -125.0261
 CYCLE:    28 TIME:   0.012 TIME LEFT:  2.00D  GRAD.:     2.647 HEAT: -125.0402
 CYCLE:    29 TIME:   0.008 TIME LEFT:  2.00D  GRAD.:     3.705 HEAT: -125.0527
 CYCLE:    30 TIME:   0.012 TIME LEFT:  2.00D  GRAD.:     4.767 HEAT: -125.0609
 CYCLE:    31 TIME:   0.012 TIME LEFT:  2.00D  GRAD.:     5.049 HEAT: -125.0625
 CYCLE:    32 TIME:   0.020 TIME LEFT:  2.00D  GRAD.:     3.794 HEAT: -125.0689
 CYCLE:    33 TIME:   0.012 TIME LEFT:  2.00D  GRAD.:     2.367 HEAT: -125.0733
 CYCLE:    34 TIME:   0.012 TIME LEFT:  2.00D  GRAD.:     3.616 HEAT: -125.0724
 CYCLE:    35 TIME:   0.012 TIME LEFT:  2.00D  GRAD.:     3.296 HEAT: -125.0735
 CYCLE:    36 TIME:   0.012 TIME LEFT:  2.00D  GRAD.:     2.623 HEAT: -125.0768
 CYCLE:    37 TIME:   0.008 TIME LEFT:  2.00D  GRAD.:     3.711 HEAT: -125.0744
 CYCLE:    38 TIME:   0.012 TIME LEFT:  2.00D  GRAD.:     2.664 HEAT: -125.0794
 CYCLE:    39 TIME:   0.012 TIME LEFT:  2.00D  GRAD.:     4.637 HEAT: -125.0724
 CYCLE:    40 TIME:   0.012 TIME LEFT:  2.00D  GRAD.:     1.405 HEAT: -125.0844
 CYCLE:    41 TIME:   0.008 TIME LEFT:  2.00D  GRAD.:     5.378 HEAT: -125.0748
 CYCLE:    42 TIME:   0.012 TIME LEFT:  2.00D  GRAD.:     1.655 HEAT: -125.0868
 CYCLE:    43 TIME:   0.020 TIME LEFT:  2.00D  GRAD.:     3.038 HEAT: -125.0848
 CYCLE:    44 TIME:   0.012 TIME LEFT:  2.00D  GRAD.:     1.917 HEAT: -125.0894
 CYCLE:    45 TIME:   0.020 TIME LEFT:  2.00D  GRAD.:     4.588 HEAT: -125.0835
 CYCLE:    46 TIME:   0.012 TIME LEFT:  2.00D  GRAD.:     1.174 HEAT: -125.0938
 CYCLE:    47 TIME:   0.012 TIME LEFT:  2.00D  GRAD.:     2.728 HEAT: -125.0945
 CYCLE:    48 TIME:   0.012 TIME LEFT:  2.00D  GRAD.:     3.410 HEAT: -125.0967
 CYCLE:    49 TIME:   0.012 TIME LEFT:  2.00D  GRAD.:     2.416 HEAT: -125.1083
 CYCLE:    50 TIME:   0.012 TIME LEFT:  2.00D  GRAD.:     2.794 HEAT: -125.1160
 CYCLE:    51 TIME:   0.031 TIME LEFT:  2.00D  GRAD.:     4.241 HEAT: -125.1195
 CYCLE:    52 TIME:   0.012 TIME LEFT:  2.00D  GRAD.:     0.986 HEAT: -125.1280

     GRADIENT =  0.98566 IS LESS THAN CUTOFF =  1.00000



 -------------------------------------------------------------------------------
 PM7 XYZ

 freesolv_404 - geometry optimisation


     GEOMETRY OPTIMISED USING EIGENVECTOR FOLLOWING (EF).     
     SCF FIELD WAS ACHIEVED                                   


                              PM7 CALCULATION
                                                       MOPAC v23.0.3 Linux
                                                       Fri Jul 25 15:24:28 2025




          FINAL HEAT OF FORMATION =       -125.12805 KCAL/MOL =    -523.53578 KJ/MOL


          COSMO AREA              =        196.28 SQUARE ANGSTROMS
          COSMO VOLUME            =        205.10 CUBIC ANGSTROMS

          GRADIENT NORM           =          0.98566          =       0.19330 PER ATOM
          IONIZATION POTENTIAL    =         10.534604 EV
          HOMO LUMO ENERGIES (EV) =        -10.535  1.216
          NO. OF FILLED LEVELS    =         30
          MOLECULAR WEIGHT        =        144.2132         POINT GROUP:  C1  

          MOLECULAR DIMENSIONS (Angstroms)

            Atom       Atom       Distance
            H    25    H    16     8.32099
            H    22    H    19     4.55122
            H    23    O     7     3.58416


          SCF CALCULATIONS        =         69

          WALL-CLOCK TIME         =      0.777 SECONDS
          COMPUTATION TIME        =     15.334 SECONDS




   ATOM   CHEMICAL          X               Y               Z
  NUMBER   SYMBOL      (ANGSTROMS)     (ANGSTROMS)     (ANGSTROMS)

     1       C         -1.93128614  *  -0.88736862  *  -0.75438498  *
     2       C         -1.95957000  *  -0.05690507  *   0.52974282  *
     3       C         -3.36630798  *   0.49563943  *   0.77898133  *
     4       C         -0.97505235  *   1.11932406  *   0.43430043  *
     5       O          0.35298626  *   0.59590070  *   0.42123991  *
     6       C          0.98774916  *   0.50279763  *  -0.77146120  *
     7       O          0.50724985  *   0.88944152  *  -1.80548785  *
     8       C          2.35120607  *  -0.13103603  *  -0.59491874  *
     9       C          2.17797616  *  -1.55193179  *  -0.05916128  *
    10       C          3.19021146  *   0.72720879  *   0.35014285  *
    11       H         -0.95936715  *  -1.37554997  *  -0.89074777  *
    12       H         -2.10076286  *  -0.26378108  *  -1.64187448  *
    13       H         -2.69725814  *  -1.66906728  *  -0.74432866  *
    14       H         -1.65781353  *  -0.70534114  *   1.38812901  *
    15       H         -3.41630735  *   1.08463690  *   1.70030490  *
    16       H         -4.09599163  *  -0.31761181  *   0.87134762  *
    17       H         -3.69895470  *   1.13493204  *  -0.04737167  *
    18       H         -1.16304347  *   1.75431545  *  -0.44932599  *
    19       H         -0.97552159  *   1.74110481  *   1.34811058  *
    20       H          2.84291691  *  -0.16788968  *  -1.60277598  *
    21       H          3.14809276  *  -2.04300257  *   0.08157785  *
    22       H          1.58835211  *  -2.17400445  *  -0.74362822  *
    23       H          1.66449721  *  -1.55360445  *   0.91278441  *
    24       H          3.31234834  *   1.74874162  *  -0.03030117  *
    25       H          4.19277244  *   0.30374401  *   0.48518209  *
    26       H          2.72748225  *   0.79993953  *   1.34386880  *

                             CARTESIAN COORDINATES

   1    C       -1.931286136    -0.887368618    -0.754384979
   2    C       -1.959570004    -0.056905074     0.529742817
   3    C       -3.366307975     0.495639433     0.778981328
   4    C       -0.975052348     1.119324063     0.434300430
   5    O        0.352986263     0.595900701     0.421239912
   6    C        0.987749161     0.502797630    -0.771461204
   7    O        0.507249845     0.889441523    -1.805487851
   8    C        2.351206069    -0.131036028    -0.594918738
   9    C        2.177976164    -1.551931787    -0.059161277
  10    C        3.190211455     0.727208789     0.350142851
  11    H       -0.959367149    -1.375549967    -0.890747769
  12    H       -2.100762857    -0.263781084    -1.641874478
  13    H       -2.697258141    -1.669067278    -0.744328658
  14    H       -1.657813531    -0.705341136     1.388129007
  15    H       -3.416307351     1.084636901     1.700304903
  16    H       -4.095991630    -0.317611806     0.871347617
  17    H       -3.698954702     1.134932036    -0.047371667
  18    H       -1.163043473     1.754315451    -0.449325988
  19    H       -0.975521593     1.741104809     1.348110578
  20    H        2.842916908    -0.167889682    -1.602775982
  21    H        3.148092758    -2.043002567     0.081577849
  22    H        1.588352109    -2.174004447    -0.743628224
  23    H        1.664497206    -1.553604445     0.912784413
  24    H        3.312348340     1.748741623    -0.030301174
  25    H        4.192772440     0.303744012     0.485182094
  26    H        2.727482255     0.799939531     1.343868800


           Empirical Formula: C8 H16 O2  =    26 atoms



      MOLECULAR POINT GROUP   :   C1  


                  EIGENVALUES  
 -31.26751 -29.92634 -29.21766 -28.40283 -24.32143 -24.15358 -23.86955 -21.97375
 -19.54636 -19.42817 -16.88126 -16.65188 -16.11292 -15.62012 -15.24993 -14.79975
 -14.67108 -13.79215 -13.55507 -13.38879 -13.21500 -12.95173 -12.63557 -12.43632
 -12.24795 -12.06639 -11.95039 -11.44056 -10.77035 -10.53460   1.21551   1.75913
   3.42893   3.77333   3.90382   4.01930   4.08734   4.49367   4.61506   5.37426
   5.50679   5.55349   5.58729   5.65881   5.66806   5.73418   5.76744   5.83808
   5.96822   5.99971   6.04377   6.28055   6.70057   6.78781   6.90889   7.19037


              NET ATOMIC CHARGES AND DIPOLE CONTRIBUTIONS

  ATOM NO.   TYPE          CHARGE      No. of ELECS.   s-Pop       p-Pop       
    1          C          -0.449348        4.4493     1.05484     3.39450
    2          C          -0.096228        4.0962     1.06017     3.03606
    3          C          -0.453006        4.4530     1.05509     3.39792
    4          C          -0.038318        4.0383     1.09966     2.93866
    5          O          -0.428589        6.4286     1.86347     4.56512
    6          C           0.594793        3.4052     1.13366     2.27154
    7          O          -0.521151        6.5212     1.87590     4.64525
    8          C          -0.135471        4.1355     1.06516     3.07031
    9          C          -0.441441        4.4414     1.05403     3.38742
   10          C          -0.440326        4.4403     1.05361     3.38671
   11          H           0.144514        0.8555     0.85549
   12          H           0.158258        0.8417     0.84174
   13          H           0.143174        0.8568     0.85683
   14          H           0.141020        0.8590     0.85898
   15          H           0.142169        0.8578     0.85783
   16          H           0.148665        0.8513     0.85134
   17          H           0.149746        0.8503     0.85025
   18          H           0.150005        0.8500     0.84999
   19          H           0.135331        0.8647     0.86467
   20          H           0.167442        0.8326     0.83256
   21          H           0.152982        0.8470     0.84702
   22          H           0.149554        0.8504     0.85045
   23          H           0.161804        0.8382     0.83820
   24          H           0.151151        0.8488     0.84885
   25          H           0.151512        0.8485     0.84849
   26          H           0.161757        0.8382     0.83824
 DIPOLE           X         Y         Z       TOTAL
 POINT-CHG.     0.487    -0.870     2.014     2.247
 HYBRID        -0.149     0.066    -0.077     0.180
 SUM            0.338    -0.804     1.937     2.124


          ATOMIC ORBITAL ELECTRON POPULATIONS

     Atom    s        px        py        pz   
    1  C   1.05484   1.17263   1.13713   1.08474
    2  C   1.06017   0.96761   1.01476   1.05369
    3  C   1.05509   1.06459   1.16297   1.17036
    4  C   1.09966   0.78356   1.01394   1.14115
    5  O   1.86347   1.36284   1.77452   1.42776
    6  C   1.13366   0.82725   0.69249   0.75180
    7  O   1.87590   1.72060   1.52058   1.40407
    8  C   1.06516   0.98334   0.98956   1.09741
    9  C   1.05403   1.18134   1.03503   1.17104
   10  C   1.05361   1.13114   1.12629   1.12928
   11  H   0.85549
   12  H   0.84174
   13  H   0.85683
   14  H   0.85898
   15  H   0.85783
   16  H   0.85134
   17  H   0.85025
   18  H   0.84999
   19  H   0.86467
   20  H   0.83256
   21  H   0.84702
   22  H   0.85045
   23  H   0.83820
   24  H   0.84885
   25  H   0.84849
   26  H   0.83824

 **********************
 *                    *
 * JOB ENDED NORMALLY *
 *                    *
 **********************



 TOTAL JOB TIME:             0.78 SECONDS

 == MOPAC DONE ==
