 *******************************************************************************
 **                                                                           **
 **                              MOPAC v23.0.3                                **
 **                                                                           **
 *******************************************************************************
 **          Digital Object Identifier (DOI): 10.5281/zenodo.6511958          **
 **    Visit the DOI location for information on how to cite this program.    **
 *******************************************************************************

                              PM7 CALCULATION RESULTS

 *******************************************************************************
 *  CALCULATION DONE:                                Fri Jul 25 15:23:50 2025  *
 *  PM7        - The PM7 Hamiltonian to be used
 *  XYZ        - CARTESIAN COORDINATE SYSTEM TO BE USED
 *  T=         - A TIME OF 172800.0 SECONDS REQUESTED
 *  DUMP=N     - RESTART FILE WRITTEN EVERY 7200.0 SECONDS REQUESTED
 *******************************************************************************
PM7 XYZ

 freesolv_356 - geometry optimisation
   ATOM   CHEMICAL          X               Y               Z
  NUMBER   SYMBOL      (ANGSTROMS)     (ANGSTROMS)     (ANGSTROMS)

     1       C          3.20152400  *   0.94116300  *   0.00578300  *
     2       N          2.15392300  *  -0.07442200  *   0.03199200  *
     3       C          2.32111300  *  -1.41983900  *   0.03237100  *
     4       N          1.14753100  *  -2.10431800  *   0.04133500  *
     5       C          0.22627400  *  -1.11951400  *   0.04900800  *
     6       C          0.82125500  *   0.09494800  *   0.04059300  *
     7       C          0.05651300  *   1.25388300  *   0.01935400  *
     8       O          0.61112700  *   2.38671400  *  -0.00961100  *
     9       N         -1.31442600  *   1.12915300  *   0.02135200  *
    10       C         -1.90026000  *  -0.12645400  *  -0.00006700  *
    11       O         -3.15797600  *  -0.23074600  *  -0.06608500  *
    12       N         -1.12639400  *  -1.26669800  *   0.04229600  *
    13       C         -1.73658600  *  -2.60209400  *  -0.00365500  *
    14       C         -2.15955500  *   2.33345300  *  -0.03841600  *
    15       H          3.11569500  *   1.54354500  *  -0.92277400  *
    16       H          4.20472500  *   0.46481300  *   0.03054000  *
    17       H          3.10226600  *   1.60518100  *   0.88991900  *
    18       H          3.28870500  *  -1.90496700  *   0.02172000  *
    19       H         -1.96956200  *  -2.86838900  *  -1.05604700  *
    20       H         -1.05785700  *  -3.37132300  *   0.42271500  *
    21       H         -2.67155700  *  -2.62644200  *   0.59596700  *
    22       H         -2.37314700  *   2.58579400  *  -1.09835900  *
    23       H         -1.66495200  *   3.20021000  *   0.44971800  *
    24       H         -3.11837800  *   2.17635000  *   0.50035100  *



          CARTESIAN COORDINATES 

    NO.       ATOM           X           Y           Z

     1         C          3.2015      0.9412      0.0058
     2         N          2.1539     -0.0744      0.0320
     3         C          2.3211     -1.4198      0.0324
     4         N          1.1475     -2.1043      0.0413
     5         C          0.2263     -1.1195      0.0490
     6         C          0.8213      0.0949      0.0406
     7         C          0.0565      1.2539      0.0194
     8         O          0.6111      2.3867     -0.0096
     9         N         -1.3144      1.1292      0.0214
    10         C         -1.9003     -0.1265     -0.0001
    11         O         -3.1580     -0.2307     -0.0661
    12         N         -1.1264     -1.2667      0.0423
    13         C         -1.7366     -2.6021     -0.0037
    14         C         -2.1596      2.3335     -0.0384
    15         H          3.1157      1.5435     -0.9228
    16         H          4.2047      0.4648      0.0305
    17         H          3.1023      1.6052      0.8899
    18         H          3.2887     -1.9050      0.0217
    19         H         -1.9696     -2.8684     -1.0560
    20         H         -1.0579     -3.3713      0.4227
    21         H         -2.6716     -2.6264      0.5960
    22         H         -2.3731      2.5858     -1.0984
    23         H         -1.6650      3.2002      0.4497
    24         H         -3.1184      2.1764      0.5004

 General Reference for PM7:
 "Optimization of Parameters for Semiempirical Methods VI: More Modifications to the 
 NDDO Approximations and Re-optimization of Parameters", J. J. P. Stewart, J. Mol. Mod., 1:32, 19 (2013)
 https://link.springer.com/article/10.1007/s00894-012-1667-x

           Empirical Formula: C8 H10 N4 O2  =    24 atoms



      MOLECULAR POINT GROUP   :   C1  


      RHF CALCULATION, NO. OF DOUBLY OCCUPIED LEVELS = 37


          Geometry optimization using EF

          DIAGONAL MATRIX USED AS START HESSIAN

 CYCLE:     1 TIME:   0.020 TIME LEFT:  2.00D  GRAD.:   267.617 HEAT: -27.84982
 CYCLE:     2 TIME:   0.023 TIME LEFT:  2.00D  GRAD.:   108.839 HEAT: -39.56399
 CYCLE:     3 TIME:   0.012 TIME LEFT:  2.00D  GRAD.:    79.925 HEAT: -43.05027
 CYCLE:     4 TIME:   0.023 TIME LEFT:  2.00D  GRAD.:    50.967 HEAT: -44.49615
 CYCLE:     5 TIME:   0.020 TIME LEFT:  2.00D  GRAD.:    40.006 HEAT: -45.03670
 CYCLE:     6 TIME:   0.012 TIME LEFT:  2.00D  GRAD.:    38.870 HEAT: -45.36095
 CYCLE:     7 TIME:   0.012 TIME LEFT:  2.00D  GRAD.:    44.682 HEAT: -45.49340
 CYCLE:     8 TIME:   0.012 TIME LEFT:  2.00D  GRAD.:    47.015 HEAT: -45.51040
 CYCLE:     9 TIME:   0.012 TIME LEFT:  2.00D  GRAD.:    42.903 HEAT: -45.64277
 CYCLE:    10 TIME:   0.020 TIME LEFT:  2.00D  GRAD.:    17.034 HEAT: -45.98587
 CYCLE:    11 TIME:   0.020 TIME LEFT:  2.00D  GRAD.:     9.348 HEAT: -46.05822
 CYCLE:    12 TIME:   0.012 TIME LEFT:  2.00D  GRAD.:    11.696 HEAT: -46.07607
 CYCLE:    13 TIME:   0.012 TIME LEFT:  2.00D  GRAD.:     8.543 HEAT: -46.12128
 CYCLE:    14 TIME:   0.020 TIME LEFT:  2.00D  GRAD.:     8.775 HEAT: -46.13257
 CYCLE:    15 TIME:   0.008 TIME LEFT:  2.00D  GRAD.:     7.841 HEAT: -46.15417
 CYCLE:    16 TIME:   0.023 TIME LEFT:  2.00D  GRAD.:     6.216 HEAT: -46.16561
 CYCLE:    17 TIME:   0.012 TIME LEFT:  2.00D  GRAD.:     6.849 HEAT: -46.17415
 CYCLE:    18 TIME:   0.008 TIME LEFT:  2.00D  GRAD.:     4.337 HEAT: -46.18788
 CYCLE:    19 TIME:   0.020 TIME LEFT:  2.00D  GRAD.:     5.077 HEAT: -46.19261
 CYCLE:    20 TIME:   0.012 TIME LEFT:  2.00D  GRAD.:     1.997 HEAT: -46.20299
 CYCLE:    21 TIME:   0.012 TIME LEFT:  2.00D  GRAD.:     3.888 HEAT: -46.21254
 CYCLE:    22 TIME:   0.008 TIME LEFT:  2.00D  GRAD.:     4.566 HEAT: -46.22598
 CYCLE:    23 TIME:   0.012 TIME LEFT:  2.00D  GRAD.:     7.034 HEAT: -46.23123
 CYCLE:    24 TIME:   0.012 TIME LEFT:  2.00D  GRAD.:     6.895 HEAT: -46.24174
 CYCLE:    25 TIME:   0.043 TIME LEFT:  2.00D  GRAD.:     3.870 HEAT: -46.25162
 CYCLE:    26 TIME:   0.035 TIME LEFT:  2.00D  GRAD.:     2.758 HEAT: -46.25436
 CYCLE:    27 TIME:   0.012 TIME LEFT:  2.00D  GRAD.:     4.696 HEAT: -46.25579
 CYCLE:    28 TIME:   0.008 TIME LEFT:  2.00D  GRAD.:     3.265 HEAT: -46.25636
 CYCLE:    29 TIME:   0.012 TIME LEFT:  2.00D  GRAD.:     3.226 HEAT: -46.25968
 CYCLE:    30 TIME:   0.008 TIME LEFT:  2.00D  GRAD.:     4.122 HEAT: -46.25745
 CYCLE:    31 TIME:   0.012 TIME LEFT:  2.00D  GRAD.:     6.741 HEAT: -46.25101
 CYCLE:    32 TIME:   0.012 TIME LEFT:  2.00D  GRAD.:     5.378 HEAT: -46.25248
 CYCLE:    33 TIME:   0.020 TIME LEFT:  2.00D  GRAD.:     4.438 HEAT: -46.25789
 CYCLE:    34 TIME:   0.012 TIME LEFT:  2.00D  GRAD.:     1.915 HEAT: -46.26191
 CYCLE:    35 TIME:   0.008 TIME LEFT:  2.00D  GRAD.:     3.452 HEAT: -46.25982
 CYCLE:    36 TIME:   0.012 TIME LEFT:  2.00D  GRAD.:     1.934 HEAT: -46.26190
 CYCLE:    37 TIME:   0.012 TIME LEFT:  2.00D  GRAD.:     2.793 HEAT: -46.26034
 CYCLE:    38 TIME:   0.008 TIME LEFT:  2.00D  GRAD.:     1.295 HEAT: -46.26334
 CYCLE:    39 TIME:   0.012 TIME LEFT:  2.00D  GRAD.:     3.306 HEAT: -46.25940
 CYCLE:    40 TIME:   0.012 TIME LEFT:  2.00D  GRAD.:     0.772 HEAT: -46.26407

     GRADIENT =  0.77155 IS LESS THAN CUTOFF =  1.00000



 -------------------------------------------------------------------------------
 PM7 XYZ

 freesolv_356 - geometry optimisation


     GEOMETRY OPTIMISED USING EIGENVECTOR FOLLOWING (EF).     
     SCF FIELD WAS ACHIEVED                                   


                              PM7 CALCULATION
                                                       MOPAC v23.0.3 Linux
                                                       Fri Jul 25 15:23:51 2025




          FINAL HEAT OF FORMATION =        -46.26407 KCAL/MOL =    -193.56886 KJ/MOL


          COSMO AREA              =        208.47 SQUARE ANGSTROMS
          COSMO VOLUME            =        217.86 CUBIC ANGSTROMS

          GRADIENT NORM           =          0.77155          =       0.15749 PER ATOM
          IONIZATION POTENTIAL    =          8.971132 EV
          HOMO LUMO ENERGIES (EV) =         -8.971 -0.445
          NO. OF FILLED LEVELS    =         37
          MOLECULAR WEIGHT        =        194.1926         POINT GROUP:  C1  

          MOLECULAR DIMENSIONS (Angstroms)

            Atom       Atom       Distance
            H    24    H    18     7.67863
            H    19    H    17     6.81783
            H    15    H    21     3.23312


          SCF CALCULATIONS        =         53

          WALL-CLOCK TIME         =      0.605 SECONDS
          COMPUTATION TIME        =     12.003 SECONDS




   ATOM   CHEMICAL          X               Y               Z
  NUMBER   SYMBOL      (ANGSTROMS)     (ANGSTROMS)     (ANGSTROMS)

     1       C          3.21917587  *   0.92295462  *   0.01037589  *
     2       N          2.21359538  *  -0.11787981  *   0.02718862  *
     3       C          2.38722124  *  -1.48307204  *   0.03904335  *
     4       N          1.19116801  *  -2.13857644  *   0.04443649  *
     5       C          0.22585720  *  -1.15280131  *   0.03575550  *
     6       C          0.84335873  *   0.12664467  *   0.02441293  *
     7       C          0.09388079  *   1.35241242  *   0.01094215  *
     8       O          0.53456523  *   2.48016942  *   0.00419512  *
     9       N         -1.30505734  *   1.13167149  *   0.00877432  *
    10       C         -1.94610636  *  -0.12247069  *  -0.00237128  *
    11       O         -3.15433189  *  -0.22245596  *  -0.03350323  *
    12       N         -1.14061924  *  -1.27941837  *   0.05057180  *
    13       C         -1.78159394  *  -2.59576413  *  -0.00924317  *
    14       C         -2.18565521  *   2.31038477  *  -0.04483362  *
    15       H          3.11446720  *   1.54921448  *  -0.90161854  *
    16       H          4.23671829  *   0.50179251  *   0.04001066  *
    17       H          3.08569443  *   1.60538712  *   0.87747595  *
    18       H          3.34519315  *  -1.97978328  *   0.04340709  *
    19       H         -2.01744365  *  -2.86680825  *  -1.05458056  *
    20       H         -1.10826452  *  -3.36718019  *   0.41166464  *
    21       H         -2.72382116  *  -2.58617479  *   0.57235458  *
    22       H         -2.41398033  *   2.57202292  *  -1.09353591  *
    23       H         -1.69087404  *   3.17725070  *   0.43404972  *
    24       H         -3.13752131  *   2.11195412  *   0.48323703  *

                             CARTESIAN COORDINATES

   1    C        3.219175875     0.922954616     0.010375893
   2    N        2.213595384    -0.117879808     0.027188624
   3    C        2.387221237    -1.483072039     0.039043351
   4    N        1.191168006    -2.138576435     0.044436488
   5    C        0.225857204    -1.152801307     0.035755502
   6    C        0.843358727     0.126644673     0.024412933
   7    C        0.093880791     1.352412416     0.010942152
   8    O        0.534565225     2.480169421     0.004195120
   9    N       -1.305057345     1.131671491     0.008774319
  10    C       -1.946106362    -0.122470688    -0.002371279
  11    O       -3.154331895    -0.222455963    -0.033503232
  12    N       -1.140619237    -1.279418373     0.050571798
  13    C       -1.781593936    -2.595764125    -0.009243170
  14    C       -2.185655208     2.310384771    -0.044833624
  15    H        3.114467199     1.549214481    -0.901618542
  16    H        4.236718289     0.501792515     0.040010661
  17    H        3.085694427     1.605387123     0.877475951
  18    H        3.345193152    -1.979783278     0.043407091
  19    H       -2.017443652    -2.866808251    -1.054580565
  20    H       -1.108264519    -3.367180192     0.411664640
  21    H       -2.723821164    -2.586174790     0.572354580
  22    H       -2.413980333     2.572022918    -1.093535907
  23    H       -1.690874043     3.177250703     0.434049721
  24    H       -3.137521310     2.111954117     0.483237033


           Empirical Formula: C8 H10 N4 O2  =    24 atoms



      MOLECULAR POINT GROUP   :   C1  


                  EIGENVALUES  
 -39.25525 -38.28881 -36.40886 -34.28233 -31.14324 -30.40393 -27.37284 -25.59645
 -25.08100 -24.64982 -22.81617 -22.37006 -21.09684 -19.59235 -18.66676 -17.43673
 -17.31041 -16.31221 -16.21763 -15.89237 -15.45475 -15.44300 -15.03714 -14.42921
 -14.34583 -14.32250 -13.80288 -13.68352 -13.40058 -13.25895 -11.80951 -11.59223
 -11.32653 -10.80726 -10.72825 -10.13521  -8.97113  -0.44469   0.35976   0.47550
   0.89714   1.14075   1.53518   2.00524   2.43859   3.02456   3.41698   3.56681
   3.85426   4.01467   4.23440   4.39619   4.60473   4.74356   4.83501   4.95772
   5.04823   5.14624   5.30195   5.39602   5.46528   5.49499   5.54074   5.67027
   6.10143   6.26550


              NET ATOMIC CHARGES AND DIPOLE CONTRIBUTIONS

  ATOM NO.   TYPE          CHARGE      No. of ELECS.   s-Pop       p-Pop       
    1          C          -0.245753        4.2458     1.06196     3.18379
    2          N          -0.155163        5.1552     1.51095     3.64421
    3          C           0.123442        3.8766     1.10267     2.77389
    4          N          -0.437819        5.4378     1.77509     3.66273
    5          C           0.314601        3.6854     1.04028     2.64512
    6          C          -0.291871        4.2919     1.04262     3.24925
    7          C           0.628884        3.3711     1.05397     2.31714
    8          O          -0.495908        6.4959     1.88046     4.61545
    9          N          -0.523716        5.5237     1.58407     3.93964
   10          C           0.697992        3.3020     1.03808     2.26393
   11          O          -0.495678        6.4957     1.88259     4.61309
   12          N          -0.412177        5.4122     1.54180     3.87037
   13          C          -0.204500        4.2045     1.06326     3.14124
   14          C          -0.207968        4.2080     1.06175     3.14622
   15          H           0.180315        0.8197     0.81969
   16          H           0.157869        0.8421     0.84213
   17          H           0.182166        0.8178     0.81783
   18          H           0.196241        0.8038     0.80376
   19          H           0.153503        0.8465     0.84650
   20          H           0.173394        0.8266     0.82661
   21          H           0.170246        0.8298     0.82975
   22          H           0.152124        0.8479     0.84788
   23          H           0.170917        0.8291     0.82908
   24          H           0.168860        0.8311     0.83114
 DIPOLE           X         Y         Z       TOTAL
 POINT-CHG.     3.518    -0.650    -0.016     3.578
 HYBRID         0.168     0.744    -0.087     0.768
 SUM            3.687     0.094    -0.102     3.689


          ATOMIC ORBITAL ELECTRON POPULATIONS

     Atom    s        px        py        pz   
    1  C   1.06196   0.98835   0.98987   1.20558
    2  N   1.51095   1.08838   1.10191   1.45393
    3  C   1.10267   0.99389   0.77319   1.00681
    4  N   1.77509   1.04422   1.31016   1.30836
    5  C   1.04028   0.81516   0.88532   0.94464
    6  C   1.04262   0.86597   1.01749   1.36579
    7  C   1.05397   0.76077   0.83462   0.72176
    8  O   1.88046   1.75680   1.31973   1.53892
    9  N   1.58407   1.14377   1.12862   1.66725
   10  C   1.03808   0.77565   0.73785   0.75043
   11  O   1.88259   1.20208   1.82772   1.58329
   12  N   1.54180   1.08219   1.13066   1.65753
   13  C   1.06326   1.10914   0.85648   1.17562
   14  C   1.06175   1.04266   0.92919   1.17437
   15  H   0.81969
   16  H   0.84213
   17  H   0.81783
   18  H   0.80376
   19  H   0.84650
   20  H   0.82661
   21  H   0.82975
   22  H   0.84788
   23  H   0.82908
   24  H   0.83114

 **********************
 *                    *
 * JOB ENDED NORMALLY *
 *                    *
 **********************



 TOTAL JOB TIME:             0.61 SECONDS

 == MOPAC DONE ==
