 *******************************************************************************
 **                                                                           **
 **                              MOPAC v23.0.3                                **
 **                                                                           **
 *******************************************************************************
 **          Digital Object Identifier (DOI): 10.5281/zenodo.6511958          **
 **    Visit the DOI location for information on how to cite this program.    **
 *******************************************************************************

                              PM7 CALCULATION RESULTS

 *******************************************************************************
 *  CALCULATION DONE:                                Fri Jul 25 15:22:50 2025  *
 *  PM7        - The PM7 Hamiltonian to be used
 *  XYZ        - CARTESIAN COORDINATE SYSTEM TO BE USED
 *  T=         - A TIME OF 172800.0 SECONDS REQUESTED
 *  DUMP=N     - RESTART FILE WRITTEN EVERY 7200.0 SECONDS REQUESTED
 *******************************************************************************
PM7 XYZ

 freesolv_247 - geometry optimisation
   ATOM   CHEMICAL          X               Y               Z
  NUMBER   SYMBOL      (ANGSTROMS)     (ANGSTROMS)     (ANGSTROMS)

     1       C          1.83969100  *   0.72535800  *   0.36926200  *
     2       C          1.10638100  *  -0.07941600  *  -0.70766300  *
     3       C         -0.36343300  *  -0.42193200  *  -0.36724100  *
     4       C         -0.47522700  *  -1.32896400  *   0.86774500  *
     5       C         -1.23612000  *   0.84027100  *  -0.21556800  *
     6       O         -2.59547500  *   0.49902500  *  -0.15876100  *
     7       H          1.88640100  *   0.16204200  *   1.32368300  *
     8       H          1.34825400  *   1.70572900  *   0.53625200  *
     9       H          2.88078200  *   0.91765300  *   0.03448700  *
    10       H          1.13357200  *   0.49634300  *  -1.65850900  *
    11       H          1.66694300  *  -1.02290200  *  -0.88661300  *
    12       H         -0.75777100  *  -0.99935500  *  -1.23324500  *
    13       H          0.19985800  *  -2.20515400  *   0.76564400  *
    14       H         -1.51466400  *  -1.70742200  *   0.96807600  *
    15       H         -0.21512400  *  -0.77705800  *   1.79528400  *
    16       H         -0.97345700  *   1.37798400  *   0.71969500  *
    17       H         -1.05736800  *   1.53757800  *  -1.06602500  *
    18       H         -2.87324100  *   0.28022100  *  -1.08650500  *



          CARTESIAN COORDINATES 

    NO.       ATOM           X           Y           Z

     1         C          1.8397      0.7254      0.3693
     2         C          1.1064     -0.0794     -0.7077
     3         C         -0.3634     -0.4219     -0.3672
     4         C         -0.4752     -1.3290      0.8677
     5         C         -1.2361      0.8403     -0.2156
     6         O         -2.5955      0.4990     -0.1588
     7         H          1.8864      0.1620      1.3237
     8         H          1.3483      1.7057      0.5363
     9         H          2.8808      0.9177      0.0345
    10         H          1.1336      0.4963     -1.6585
    11         H          1.6669     -1.0229     -0.8866
    12         H         -0.7578     -0.9994     -1.2332
    13         H          0.1999     -2.2052      0.7656
    14         H         -1.5147     -1.7074      0.9681
    15         H         -0.2151     -0.7771      1.7953
    16         H         -0.9735      1.3780      0.7197
    17         H         -1.0574      1.5376     -1.0660
    18         H         -2.8732      0.2802     -1.0865

 General Reference for PM7:
 "Optimization of Parameters for Semiempirical Methods VI: More Modifications to the 
 NDDO Approximations and Re-optimization of Parameters", J. J. P. Stewart, J. Mol. Mod., 1:32, 19 (2013)
 https://link.springer.com/article/10.1007/s00894-012-1667-x

           Empirical Formula: C5 H12 O  =    18 atoms



      MOLECULAR POINT GROUP   :   C1  


      RHF CALCULATION, NO. OF DOUBLY OCCUPIED LEVELS = 19


          Geometry optimization using EF

          DIAGONAL MATRIX USED AS START HESSIAN

 CYCLE:     1 TIME:   0.004 TIME LEFT:  2.00D  GRAD.:    42.833 HEAT: -69.50936
 CYCLE:     2 TIME:   0.012 TIME LEFT:  2.00D  GRAD.:    30.178 HEAT: -70.44042
 CYCLE:     3 TIME:   0.004 TIME LEFT:  2.00D  GRAD.:    30.370 HEAT: -70.78533
 CYCLE:     4 TIME:   0.004 TIME LEFT:  2.00D  GRAD.:    27.013 HEAT: -71.01302
 CYCLE:     5 TIME:   0.008 TIME LEFT:  2.00D  GRAD.:    12.452 HEAT: -71.33153
 CYCLE:     6 TIME:   0.008 TIME LEFT:  2.00D  GRAD.:    13.153 HEAT: -71.37718
 CYCLE:     7 TIME:   0.008 TIME LEFT:  2.00D  GRAD.:    10.524 HEAT: -71.43702
 CYCLE:     8 TIME:   0.004 TIME LEFT:  2.00D  GRAD.:    12.825 HEAT: -71.45627
 CYCLE:     9 TIME:   0.004 TIME LEFT:  2.00D  GRAD.:     7.918 HEAT: -71.52846
 CYCLE:    10 TIME:   0.008 TIME LEFT:  2.00D  GRAD.:     8.162 HEAT: -71.55673
 CYCLE:    11 TIME:   0.004 TIME LEFT:  2.00D  GRAD.:     5.572 HEAT: -71.59575
 CYCLE:    12 TIME:   0.004 TIME LEFT:  2.00D  GRAD.:     9.344 HEAT: -71.61099
 CYCLE:    13 TIME:   0.004 TIME LEFT:  2.00D  GRAD.:     5.945 HEAT: -71.66194
 CYCLE:    14 TIME:   0.008 TIME LEFT:  2.00D  GRAD.:     7.766 HEAT: -71.67081
 CYCLE:    15 TIME:   0.008 TIME LEFT:  2.00D  GRAD.:     4.226 HEAT: -71.70840
 CYCLE:    16 TIME:   0.004 TIME LEFT:  2.00D  GRAD.:     5.803 HEAT: -71.71228
 CYCLE:    17 TIME:   0.004 TIME LEFT:  2.00D  GRAD.:     2.715 HEAT: -71.73547
 CYCLE:    18 TIME:   0.008 TIME LEFT:  2.00D  GRAD.:     6.409 HEAT: -71.73844
 CYCLE:    19 TIME:   0.004 TIME LEFT:  2.00D  GRAD.:     3.216 HEAT: -71.76427
 CYCLE:    20 TIME:   0.008 TIME LEFT:  2.00D  GRAD.:     4.181 HEAT: -71.76723
 CYCLE:    21 TIME:   0.004 TIME LEFT:  2.00D  GRAD.:     2.007 HEAT: -71.77908
 CYCLE:    22 TIME:   0.004 TIME LEFT:  2.00D  GRAD.:     3.916 HEAT: -71.78429
 CYCLE:    23 TIME:   0.004 TIME LEFT:  2.00D  GRAD.:     2.538 HEAT: -71.79556
 CYCLE:    24 TIME:   0.004 TIME LEFT:  2.00D  GRAD.:     2.416 HEAT: -71.80746
 CYCLE:    25 TIME:   0.012 TIME LEFT:  2.00D  GRAD.:     4.522 HEAT: -71.81557
 CYCLE:    26 TIME:   0.000 TIME LEFT:  2.00D  GRAD.:     2.640 HEAT: -71.83256
 CYCLE:    27 TIME:   0.012 TIME LEFT:  2.00D  GRAD.:     4.667 HEAT: -71.83657
 CYCLE:    28 TIME:   0.004 TIME LEFT:  2.00D  GRAD.:     3.550 HEAT: -71.85045
 CYCLE:    29 TIME:   0.016 TIME LEFT:  2.00D  GRAD.:     3.824 HEAT: -71.85127
 CYCLE:    30 TIME:   0.004 TIME LEFT:  2.00D  GRAD.:     3.060 HEAT: -71.85710
 CYCLE:    31 TIME:   0.023 TIME LEFT:  2.00D  GRAD.:     3.480 HEAT: -71.85712
 CYCLE:    32 TIME:   0.004 TIME LEFT:  2.00D  GRAD.:     1.301 HEAT: -71.86469
 CYCLE:    33 TIME:   0.008 TIME LEFT:  2.00D  GRAD.:     5.976 HEAT: -71.85571
 CYCLE:    34 TIME:   0.008 TIME LEFT:  2.00D  GRAD.:     1.451 HEAT: -71.87165
 CYCLE:    35 TIME:   0.004 TIME LEFT:  2.00D  GRAD.:     1.354 HEAT: -71.87505
 CYCLE:    36 TIME:   0.008 TIME LEFT:  2.00D  GRAD.:     1.246 HEAT: -71.87997
 CYCLE:    37 TIME:   0.008 TIME LEFT:  2.00D  GRAD.:     1.421 HEAT: -71.88643
 CYCLE:    38 TIME:   0.008 TIME LEFT:  2.00D  GRAD.:     1.096 HEAT: -71.89043
 CYCLE:    39 TIME:   0.004 TIME LEFT:  2.00D  GRAD.:     1.145 HEAT: -71.89828
 CYCLE:    40 TIME:   0.008 TIME LEFT:  2.00D  GRAD.:     0.736 HEAT: -71.90131

     GRADIENT =  0.73605 IS LESS THAN CUTOFF =  1.00000



 -------------------------------------------------------------------------------
 PM7 XYZ

 freesolv_247 - geometry optimisation


     GEOMETRY OPTIMISED USING EIGENVECTOR FOLLOWING (EF).     
     SCF FIELD WAS ACHIEVED                                   


                              PM7 CALCULATION
                                                       MOPAC v23.0.3 Linux
                                                       Fri Jul 25 15:22:50 2025




          FINAL HEAT OF FORMATION =        -71.90131 KCAL/MOL =    -300.83510 KJ/MOL


          COSMO AREA              =        139.30 SQUARE ANGSTROMS
          COSMO VOLUME            =        133.85 CUBIC ANGSTROMS

          GRADIENT NORM           =          0.73605          =       0.17349 PER ATOM
          IONIZATION POTENTIAL    =         10.430786 EV
          HOMO LUMO ENERGIES (EV) =        -10.431  2.965
          NO. OF FILLED LEVELS    =         19
          MOLECULAR WEIGHT        =         88.1492         POINT GROUP:  C1  

          MOLECULAR DIMENSIONS (Angstroms)

            Atom       Atom       Distance
            H    18    H     9     5.84705
            H    17    H    13     4.29073
            H    16    H    10     3.02792


          SCF CALCULATIONS        =         54

          WALL-CLOCK TIME         =      0.281 SECONDS
          COMPUTATION TIME        =      2.358 SECONDS




   ATOM   CHEMICAL          X               Y               Z
  NUMBER   SYMBOL      (ANGSTROMS)     (ANGSTROMS)     (ANGSTROMS)

     1       C          1.80383200  *   0.73860470  *   0.36657567  *
     2       C          1.10813928  *  -0.08634179  *  -0.71513449  *
     3       C         -0.35607499  *  -0.43276002  *  -0.39274042  *
     4       C         -0.47985763  *  -1.31992051  *   0.84688623  *
     5       C         -1.19255691  *   0.84375161  *  -0.20633147  *
     6       O         -2.57369222  *   0.54068649  *  -0.17770631  *
     7       H          1.82455547  *   0.20886310  *   1.32594742  *
     8       H          1.30624788  *   1.69999844  *   0.53100466  *
     9       H          2.84347188  *   0.95127477  *   0.08946273  *
    10       H          1.15280405  *   0.45733206  *  -1.67933137  *
    11       H          1.67111963  *  -1.02697926  *  -0.87758229  *
    12       H         -0.77066053  *  -0.99566868  *  -1.26735112  *
    13       H          0.04821488  *  -2.26930492  *   0.71993280  *
    14       H         -1.53445536  *  -1.54317331  *   1.05803688  *
    15       H         -0.07433550  *  -0.83009227  *   1.73905955  *
    16       H         -1.02827804  *   1.31738083  *   0.77891248  *
    17       H         -1.01077601  *   1.58224406  *  -1.00626026  *
    18       H         -2.83259071  *   0.02012039  *  -0.96091262  *

                             CARTESIAN COORDINATES

   1    C        1.803832003     0.738604704     0.366575666
   2    C        1.108139279    -0.086341787    -0.715134493
   3    C       -0.356074991    -0.432760020    -0.392740416
   4    C       -0.479857626    -1.319920514     0.846886226
   5    C       -1.192556907     0.843751614    -0.206331471
   6    O       -2.573692224     0.540686491    -0.177706313
   7    H        1.824555473     0.208863101     1.325947417
   8    H        1.306247883     1.699998439     0.531004655
   9    H        2.843471883     0.951274765     0.089462730
  10    H        1.152804050     0.457332055    -1.679331373
  11    H        1.671119628    -1.026979259    -0.877582291
  12    H       -0.770660526    -0.995668681    -1.267351125
  13    H        0.048214879    -2.269304919     0.719932795
  14    H       -1.534455363    -1.543173306     1.058036881
  15    H       -0.074335497    -0.830092271     1.739059551
  16    H       -1.028278042     1.317380833     0.778912481
  17    H       -1.010776011     1.582244065    -1.006260256
  18    H       -2.832590711     0.020120385    -0.960912623


           Empirical Formula: C5 H12 O  =    18 atoms



      MOLECULAR POINT GROUP   :   C1  


                  EIGENVALUES  
 -30.09298 -28.43394 -25.45097 -23.55811 -22.20798 -19.00826 -16.87808 -16.35340
 -15.59036 -15.02728 -14.10001 -13.51040 -13.20708 -12.84844 -12.74406 -11.67429
 -11.56571 -11.32005 -10.43079   2.96544   3.94391   4.08862   4.15979   4.73093
   5.42189   5.53502   5.69787   5.81412   5.85430   5.96150   6.00263   6.08239
   6.37754   6.47539   6.91680   7.14011


              NET ATOMIC CHARGES AND DIPOLE CONTRIBUTIONS

  ATOM NO.   TYPE          CHARGE      No. of ELECS.   s-Pop       p-Pop       
    1          C          -0.435135        4.4351     1.05118     3.38395
    2          C          -0.263609        4.2636     1.05782     3.20579
    3          C          -0.133782        4.1338     1.06640     3.06738
    4          C          -0.443404        4.4434     1.05415     3.38926
    5          C          -0.010268        4.0103     1.09025     2.92002
    6          O          -0.549937        6.5499     1.84868     4.70126
    7          H           0.146410        0.8536     0.85359
    8          H           0.142287        0.8577     0.85771
    9          H           0.140717        0.8593     0.85928
   10          H           0.132790        0.8672     0.86721
   11          H           0.138713        0.8613     0.86129
   12          H           0.129309        0.8707     0.87069
   13          H           0.139894        0.8601     0.86011
   14          H           0.155505        0.8445     0.84449
   15          H           0.146598        0.8534     0.85340
   16          H           0.143993        0.8560     0.85601
   17          H           0.112343        0.8877     0.88766
   18          H           0.307574        0.6924     0.69243
 DIPOLE           X         Y         Z       TOTAL
 POINT-CHG.     1.795    -0.342    -0.945     2.057
 HYBRID        -0.216    -0.217    -0.144     0.339
 SUM            1.579    -0.559    -1.089     1.998


          ATOMIC ORBITAL ELECTRON POPULATIONS

     Atom    s        px        py        pz   
    1  C   1.05118   1.13935   1.13324   1.11137
    2  C   1.05782   1.01720   1.11716   1.07143
    3  C   1.06640   0.99594   1.01899   1.05245
    4  C   1.05415   1.17987   1.12282   1.08657
    5  C   1.09025   0.77484   1.00888   1.13629
    6  O   1.84868   1.33279   1.80289   1.56558
    7  H   0.85359
    8  H   0.85771
    9  H   0.85928
   10  H   0.86721
   11  H   0.86129
   12  H   0.87069
   13  H   0.86011
   14  H   0.84449
   15  H   0.85340
   16  H   0.85601
   17  H   0.88766
   18  H   0.69243

 **********************
 *                    *
 * JOB ENDED NORMALLY *
 *                    *
 **********************



 TOTAL JOB TIME:             0.29 SECONDS

 == MOPAC DONE ==
