 *******************************************************************************
 **                                                                           **
 **                              MOPAC v23.0.3                                **
 **                                                                           **
 *******************************************************************************
 **          Digital Object Identifier (DOI): 10.5281/zenodo.6511958          **
 **    Visit the DOI location for information on how to cite this program.    **
 *******************************************************************************

                              PM7 CALCULATION RESULTS

 *******************************************************************************
 *  CALCULATION DONE:                                Fri Jul 25 15:23:30 2025  *
 *  PM7        - The PM7 Hamiltonian to be used
 *  XYZ        - CARTESIAN COORDINATE SYSTEM TO BE USED
 *  T=         - A TIME OF 172800.0 SECONDS REQUESTED
 *  DUMP=N     - RESTART FILE WRITTEN EVERY 7200.0 SECONDS REQUESTED
 *******************************************************************************
PM7 XYZ

 freesolv_328 - geometry optimisation
   ATOM   CHEMICAL          X               Y               Z
  NUMBER   SYMBOL      (ANGSTROMS)     (ANGSTROMS)     (ANGSTROMS)

     1       C         -2.10462300  *  -1.78992200  *   0.06116600  *
     2       C         -2.38206200  *  -0.40612000  *  -0.04733700  *
     3       C         -1.31857200  *   0.51412000  *  -0.07938400  *
     4       C         -1.47128600  *   1.90856700  *  -0.18462500  *
     5       C         -0.32351500  *   2.73667000  *  -0.20732900  *
     6       C          0.97040400  *   2.17530700  *  -0.12535400  *
     7       C          1.08875200  *   0.78620900  *  -0.02159000  *
     8       C         -0.02527800  *   0.00985700  *  -0.00153000  *
     9       C          0.26270200  *  -1.31314700  *   0.10293900  *
    10       C         -0.77191400  *  -2.25269600  *   0.13730600  *
    11       C          1.74458800  *  -1.51495700  *   0.16509500  *
    12       C          2.31410900  *  -0.06755700  *   0.07923600  *
    13       H         -2.92073300  *  -2.50014100  *   0.08603800  *
    14       H         -3.40806100  *  -0.06469900  *  -0.10488000  *
    15       H         -2.45728800  *   2.35163600  *  -0.24818900  *
    16       H         -0.43795700  *   3.80971400  *  -0.28823300  *
    17       H          1.84955100  *   2.80599500  *  -0.14250200  *
    18       H         -0.55694500  *  -3.30998600  *   0.22030100  *
    19       H          2.02737200  *  -1.99804900  *   1.12483800  *
    20       H          2.08587700  *  -2.12906900  *  -0.69562500  *
    21       H          2.88818800  *   0.18964200  *   0.99506000  *
    22       H          2.94669000  *   0.05862500  *  -0.82540200  *



          CARTESIAN COORDINATES 

    NO.       ATOM           X           Y           Z

     1         C         -2.1046     -1.7899      0.0612
     2         C         -2.3821     -0.4061     -0.0473
     3         C         -1.3186      0.5141     -0.0794
     4         C         -1.4713      1.9086     -0.1846
     5         C         -0.3235      2.7367     -0.2073
     6         C          0.9704      2.1753     -0.1254
     7         C          1.0888      0.7862     -0.0216
     8         C         -0.0253      0.0099     -0.0015
     9         C          0.2627     -1.3131      0.1029
    10         C         -0.7719     -2.2527      0.1373
    11         C          1.7446     -1.5150      0.1651
    12         C          2.3141     -0.0676      0.0792
    13         H         -2.9207     -2.5001      0.0860
    14         H         -3.4081     -0.0647     -0.1049
    15         H         -2.4573      2.3516     -0.2482
    16         H         -0.4380      3.8097     -0.2882
    17         H          1.8496      2.8060     -0.1425
    18         H         -0.5569     -3.3100      0.2203
    19         H          2.0274     -1.9980      1.1248
    20         H          2.0859     -2.1291     -0.6956
    21         H          2.8882      0.1896      0.9951
    22         H          2.9467      0.0586     -0.8254

 General Reference for PM7:
 "Optimization of Parameters for Semiempirical Methods VI: More Modifications to the 
 NDDO Approximations and Re-optimization of Parameters", J. J. P. Stewart, J. Mol. Mod., 1:32, 19 (2013)
 https://link.springer.com/article/10.1007/s00894-012-1667-x

           Empirical Formula: C12 H10  =    22 atoms



      MOLECULAR POINT GROUP   :   C2v 


      RHF CALCULATION, NO. OF DOUBLY OCCUPIED LEVELS = 29


          Geometry optimization using EF

          DIAGONAL MATRIX USED AS START HESSIAN

 CYCLE:     1 TIME:   0.012 TIME LEFT:  2.00D  GRAD.:   198.556 HEAT:  47.85557
 CYCLE:     2 TIME:   0.020 TIME LEFT:  2.00D  GRAD.:    83.325 HEAT:  40.74608
 CYCLE:     3 TIME:   0.016 TIME LEFT:  2.00D  GRAD.:    68.783 HEAT:  40.13334
 CYCLE:     4 TIME:   0.008 TIME LEFT:  2.00D  GRAD.:    65.485 HEAT:  39.84397
 CYCLE:     5 TIME:   0.012 TIME LEFT:  2.00D  GRAD.:    42.666 HEAT:  39.26550
 CYCLE:     6 TIME:   0.012 TIME LEFT:  2.00D  GRAD.:    18.765 HEAT:  38.77430
 CYCLE:     7 TIME:   0.016 TIME LEFT:  2.00D  GRAD.:    13.197 HEAT:  38.68039
 CYCLE:     8 TIME:   0.008 TIME LEFT:  2.00D  GRAD.:    14.460 HEAT:  38.60902
 CYCLE:     9 TIME:   0.012 TIME LEFT:  2.00D  GRAD.:    14.789 HEAT:  38.58311
 CYCLE:    10 TIME:   0.016 TIME LEFT:  2.00D  GRAD.:     5.811 HEAT:  38.54317
 CYCLE:    11 TIME:   0.004 TIME LEFT:  2.00D  GRAD.:     7.615 HEAT:  38.53355
 CYCLE:    12 TIME:   0.016 TIME LEFT:  2.00D  GRAD.:     6.917 HEAT:  38.52094
 CYCLE:    13 TIME:   0.016 TIME LEFT:  2.00D  GRAD.:     4.315 HEAT:  38.51246
 CYCLE:    14 TIME:   0.012 TIME LEFT:  2.00D  GRAD.:     4.128 HEAT:  38.50921
 CYCLE:    15 TIME:   0.023 TIME LEFT:  2.00D  GRAD.:     3.629 HEAT:  38.50788
 CYCLE:    16 TIME:   0.016 TIME LEFT:  2.00D  GRAD.:     3.411 HEAT:  38.50872
 CYCLE:    17 TIME:   0.016 TIME LEFT:  2.00D  GRAD.:     5.411 HEAT:  38.51178
 CYCLE:    18 TIME:   0.027 TIME LEFT:  2.00D  GRAD.:     3.318 HEAT:  38.50767
 CYCLE:    19 TIME:   0.016 TIME LEFT:  2.00D  GRAD.:     3.135 HEAT:  38.50657
 CYCLE:    20 TIME:   0.016 TIME LEFT:  2.00D  GRAD.:     6.011 HEAT:  38.51376
 CYCLE:    21 TIME:   0.016 TIME LEFT:  2.00D  GRAD.:     4.970 HEAT:  38.50979
 CYCLE:    22 TIME:   0.039 TIME LEFT:  2.00D  GRAD.:     4.497 HEAT:  38.50898
 CYCLE:    23 TIME:   0.016 TIME LEFT:  2.00D  GRAD.:     3.074 HEAT:  38.50639
 CYCLE:    24 TIME:   0.012 TIME LEFT:  2.00D  GRAD.:     2.760 HEAT:  38.50601
 CYCLE:    25 TIME:   0.016 TIME LEFT:  2.00D  GRAD.:     5.794 HEAT:  38.51186
 CYCLE:    26 TIME:   0.016 TIME LEFT:  2.00D  GRAD.:     5.202 HEAT:  38.51124
 CYCLE:    27 TIME:   0.031 TIME LEFT:  2.00D  GRAD.:     3.733 HEAT:  38.50773
 CYCLE:    28 TIME:   0.016 TIME LEFT:  2.00D  GRAD.:     3.726 HEAT:  38.50713
 CYCLE:    29 TIME:   0.016 TIME LEFT:  2.00D  GRAD.:     3.983 HEAT:  38.50863
 CYCLE:    30 TIME:   0.016 TIME LEFT:  2.00D  GRAD.:     6.715 HEAT:  38.51432
 CYCLE:    31 TIME:   0.016 TIME LEFT:  2.00D  GRAD.:     4.928 HEAT:  38.51197
 CYCLE:    32 TIME:   0.027 TIME LEFT:  2.00D  GRAD.:     4.945 HEAT:  38.51004
 CYCLE:    33 TIME:   0.016 TIME LEFT:  2.00D  GRAD.:     3.256 HEAT:  38.50875
 CYCLE:    34 TIME:   0.016 TIME LEFT:  2.00D  GRAD.:     5.393 HEAT:  38.51037
 CYCLE:    35 TIME:   0.016 TIME LEFT:  2.00D  GRAD.:     1.372 HEAT:  38.50448
 CYCLE:    36 TIME:   0.016 TIME LEFT:  2.00D  GRAD.:     2.787 HEAT:  38.50683
 CYCLE:    37 TIME:   0.016 TIME LEFT:  2.00D  GRAD.:     0.883 HEAT:  38.50418

     GRADIENT =  0.88291 IS LESS THAN CUTOFF =  1.00000



 -------------------------------------------------------------------------------
 PM7 XYZ

 freesolv_328 - geometry optimisation


     GEOMETRY OPTIMISED USING EIGENVECTOR FOLLOWING (EF).     
     SCF FIELD WAS ACHIEVED                                   


                              PM7 CALCULATION
                                                       MOPAC v23.0.3 Linux
                                                       Fri Jul 25 15:23:31 2025




          FINAL HEAT OF FORMATION =         38.50418 KCAL/MOL =     161.10147 KJ/MOL


          COSMO AREA              =        188.14 SQUARE ANGSTROMS
          COSMO VOLUME            =        193.97 CUBIC ANGSTROMS

          GRADIENT NORM           =          0.88291          =       0.18824 PER ATOM
          IONIZATION POTENTIAL    =          8.632489 EV
          HOMO LUMO ENERGIES (EV) =         -8.632 -0.360
          NO. OF FILLED LEVELS    =         29
          MOLECULAR WEIGHT        =        154.2110         POINT GROUP:  C2v 

          MOLECULAR DIMENSIONS (Angstroms)

            Atom       Atom       Distance
            H    17    H    13     7.16523
            H    15    H    19     6.43866
            H    20    H    21     1.86535


          SCF CALCULATIONS        =         53

          WALL-CLOCK TIME         =      0.629 SECONDS
          COMPUTATION TIME        =      4.808 SECONDS




   ATOM   CHEMICAL          X               Y               Z
  NUMBER   SYMBOL      (ANGSTROMS)     (ANGSTROMS)     (ANGSTROMS)

     1       C         -2.10732961  *  -1.77415050  *   0.05993650  *
     2       C         -2.39646464  *  -0.43324626  *  -0.04589672  *
     3       C         -1.34323604  *   0.52379796  *  -0.08084465  *
     4       C         -1.46321273  *   1.93828609  *  -0.18659446  *
     5       C         -0.33637550  *   2.72714905  *  -0.20709280  *
     6       C          0.97972101  *   2.18588602  *  -0.12571645  *
     7       C          1.11991568  *   0.83076102  *  -0.02365774  *
     8       C         -0.04661471  *   0.01821913  *  -0.00267075  *
     9       C          0.25512951  *  -1.36700661  *   0.10668643  *
    10       C         -0.77221972  *  -2.26693252  *   0.13835822  *
    11       C          1.74805893  *  -1.52248516  *   0.16573447  *
    12       C          2.32189812  *  -0.06439676  *   0.07922345  *
    13       H         -2.91752864  *  -2.50337869  *   0.08632853  *
    14       H         -3.42401305  *  -0.08501731  *  -0.10405425  *
    15       H         -2.45524940  *   2.37718338  *  -0.25016782  *
    16       H         -0.43344930  *   3.80988362  *  -0.28822824  *
    17       H          1.83302215  *   2.85559916  *  -0.14648927  *
    18       H         -0.60295980  *  -3.33523734  *   0.22061175  *
    19       H          2.06578642  *  -2.01661452  *   1.09957228  *
    20       H          2.12221218  *  -2.14341263  *  -0.66588786  *
    21       H          2.92781343  *   0.17437373  *   0.96952239  *
    22       H          2.98402976  *   0.04731965  *  -0.79590931  *

                             CARTESIAN COORDINATES

   1    C       -2.107329610    -1.774150504     0.059936504
   2    C       -2.396464643    -0.433246255    -0.045896724
   3    C       -1.343236037     0.523797956    -0.080844645
   4    C       -1.463212735     1.938286091    -0.186594462
   5    C       -0.336375496     2.727149051    -0.207092796
   6    C        0.979721011     2.185886022    -0.125716449
   7    C        1.119915675     0.830761021    -0.023657740
   8    C       -0.046614713     0.018219130    -0.002670754
   9    C        0.255129510    -1.367006612     0.106686428
  10    C       -0.772219718    -2.266932522     0.138358222
  11    C        1.748058927    -1.522485161     0.165734473
  12    C        2.321898116    -0.064396761     0.079223451
  13    H       -2.917528645    -2.503378693     0.086328528
  14    H       -3.424013046    -0.085017308    -0.104054253
  15    H       -2.455249401     2.377183384    -0.250167816
  16    H       -0.433449303     3.809883623    -0.288228244
  17    H        1.833022151     2.855599159    -0.146489275
  18    H       -0.602959797    -3.335237337     0.220611749
  19    H        2.065786424    -2.016614515     1.099572285
  20    H        2.122212184    -2.143412630    -0.665887865
  21    H        2.927813425     0.174373735     0.969522393
  22    H        2.984029757     0.047319647    -0.795909307


           Empirical Formula: C12 H10  =    22 atoms



      MOLECULAR POINT GROUP   :   C2v 


                  EIGENVALUES  
 -31.53621 -29.16034 -29.03985 -25.50309 -25.16399 -24.62354 -22.09478 -21.27961
 -20.38795 -19.79955 -17.11953 -16.84164 -16.21682 -16.17658 -15.07617 -14.69310
 -14.01739 -13.73141 -13.66034 -13.46720 -13.11673 -12.54167 -12.26606 -11.61494
 -11.60981 -11.57546 -10.37019  -9.41435  -8.63249  -0.36039   0.02864   0.95759
   1.83997   2.98225   3.33813   3.40824   3.99342   4.44663   4.47441   4.93060
   5.00962   5.08652   5.15489   5.18960   5.27964   5.34642   5.51474   5.74635
   5.85088   5.96275   6.03459   6.09396   6.16343   6.23136   6.29650   6.31384
   6.36143   6.39926


              NET ATOMIC CHARGES AND DIPOLE CONTRIBUTIONS

  ATOM NO.   TYPE          CHARGE      No. of ELECS.   s-Pop       p-Pop       
    1          C          -0.116962        4.1170     1.08535     3.03161
    2          C          -0.181778        4.1818     1.08178     3.10000
    3          C           0.021848        3.9782     1.06068     2.91747
    4          C          -0.181789        4.1818     1.08176     3.10003
    5          C          -0.116940        4.1169     1.08531     3.03163
    6          C          -0.202582        4.2026     1.07758     3.12500
    7          C           0.027040        3.9730     1.07619     2.89677
    8          C          -0.073654        4.0737     1.06757     3.00609
    9          C           0.027100        3.9729     1.07620     2.89670
   10          C          -0.202599        4.2026     1.07754     3.12506
   11          C          -0.273759        4.2738     1.06261     3.21115
   12          C          -0.273693        4.2737     1.06259     3.21111
   13          H           0.149716        0.8503     0.85028
   14          H           0.156053        0.8439     0.84395
   15          H           0.156066        0.8439     0.84393
   16          H           0.149706        0.8503     0.85029
   17          H           0.156790        0.8432     0.84321
   18          H           0.156790        0.8432     0.84321
   19          H           0.155673        0.8443     0.84433
   20          H           0.155665        0.8443     0.84434
   21          H           0.155658        0.8443     0.84434
   22          H           0.155651        0.8443     0.84435
 DIPOLE           X         Y         Z       TOTAL
 POINT-CHG.     0.905    -0.353     0.054     0.973
 HYBRID         0.104    -0.041     0.006     0.112
 SUM            1.009    -0.394     0.060     1.085


          ATOMIC ORBITAL ELECTRON POPULATIONS

     Atom    s        px        py        pz   
    1  C   1.08535   1.02995   1.02296   0.97869
    2  C   1.08178   1.06836   0.99371   1.03793
    3  C   1.06068   0.97888   0.97367   0.96492
    4  C   1.08176   1.06746   0.99466   1.03790
    5  C   1.08531   0.97674   1.07568   0.97921
    6  C   1.07758   1.04735   1.01935   1.05830
    7  C   1.07619   0.97447   0.97348   0.94882
    8  C   1.06757   0.98771   0.98831   1.03007
    9  C   1.07620   0.96542   0.98242   0.94885
   10  C   1.07754   0.98787   1.07831   1.05888
   11  C   1.06261   1.00613   1.03918   1.16584
   12  C   1.06259   1.05581   0.98996   1.16534
   13  H   0.85028
   14  H   0.84395
   15  H   0.84393
   16  H   0.85029
   17  H   0.84321
   18  H   0.84321
   19  H   0.84433
   20  H   0.84434
   21  H   0.84434
   22  H   0.84435

 **********************
 *                    *
 * JOB ENDED NORMALLY *
 *                    *
 **********************



 TOTAL JOB TIME:             0.63 SECONDS

 == MOPAC DONE ==
