 *******************************************************************************
 **                                                                           **
 **                              MOPAC v23.0.3                                **
 **                                                                           **
 *******************************************************************************
 **          Digital Object Identifier (DOI): 10.5281/zenodo.6511958          **
 **    Visit the DOI location for information on how to cite this program.    **
 *******************************************************************************

                              PM7 CALCULATION RESULTS

 *******************************************************************************
 *  CALCULATION DONE:                                Fri Jul 25 15:22:20 2025  *
 *  PM7        - The PM7 Hamiltonian to be used
 *  XYZ        - CARTESIAN COORDINATE SYSTEM TO BE USED
 *  T=         - A TIME OF 172800.0 SECONDS REQUESTED
 *  DUMP=N     - RESTART FILE WRITTEN EVERY 7200.0 SECONDS REQUESTED
 *******************************************************************************
PM7 XYZ

 freesolv_199 - geometry optimisation
   ATOM   CHEMICAL          X               Y               Z
  NUMBER   SYMBOL      (ANGSTROMS)     (ANGSTROMS)     (ANGSTROMS)

     1       C          3.82922500  *   0.11439300  *  -0.23307800  *
     2       C          2.33946300  *   0.10025700  *  -0.05879100  *
     3       C          1.49686500  *   0.10016100  *  -1.17942300  *
     4       C          0.10927100  *   0.04967400  *  -1.01925800  *
     5       C         -0.45971600  *  -0.01438800  *   0.26682800  *
     6       C          0.39116400  *  -0.03304000  *   1.38577400  *
     7       C          1.77871100  *   0.01751000  *   1.22365100  *
     8       C         -1.96404200  *  -0.07123300  *   0.45643300  *
     9       C         -2.63936700  *   1.18854800  *  -0.09848700  *
    10       C         -2.55301200  *  -1.33740100  *  -0.17663200  *
    11       H          4.11095000  *   0.67106000  *  -1.15222300  *
    12       H          4.20135300  *  -0.92830400  *  -0.31274700  *
    13       H          4.32025200  *   0.60945800  *   0.63171900  *
    14       H          1.91386300  *   0.13980500  *  -2.17824700  *
    15       H         -0.51893600  *   0.05696900  *  -1.90046100  *
    16       H         -0.01728500  *  -0.09037200  *   2.38703300  *
    17       H          2.41569400  *  -0.00728100  *   2.09929900  *
    18       H         -2.19861300  *  -0.11251800  *   1.54374500  *
    19       H         -2.51695800  *   1.25736800  *  -1.20022100  *
    20       H         -3.72538500  *   1.17158600  *   0.13499800  *
    21       H         -2.19812200  *   2.09443300  *   0.36967000  *
    22       H         -2.42632800  *  -1.33035100  *  -1.28002900  *
    23       H         -2.05142400  *  -2.23834400  *   0.23714400  *
    24       H         -3.63762200  *  -1.40798700  *   0.05330400  *



          CARTESIAN COORDINATES 

    NO.       ATOM           X           Y           Z

     1         C          3.8292      0.1144     -0.2331
     2         C          2.3395      0.1003     -0.0588
     3         C          1.4969      0.1002     -1.1794
     4         C          0.1093      0.0497     -1.0193
     5         C         -0.4597     -0.0144      0.2668
     6         C          0.3912     -0.0330      1.3858
     7         C          1.7787      0.0175      1.2237
     8         C         -1.9640     -0.0712      0.4564
     9         C         -2.6394      1.1885     -0.0985
    10         C         -2.5530     -1.3374     -0.1766
    11         H          4.1109      0.6711     -1.1522
    12         H          4.2014     -0.9283     -0.3127
    13         H          4.3203      0.6095      0.6317
    14         H          1.9139      0.1398     -2.1782
    15         H         -0.5189      0.0570     -1.9005
    16         H         -0.0173     -0.0904      2.3870
    17         H          2.4157     -0.0073      2.0993
    18         H         -2.1986     -0.1125      1.5437
    19         H         -2.5170      1.2574     -1.2002
    20         H         -3.7254      1.1716      0.1350
    21         H         -2.1981      2.0944      0.3697
    22         H         -2.4263     -1.3304     -1.2800
    23         H         -2.0514     -2.2383      0.2371
    24         H         -3.6376     -1.4080      0.0533

 General Reference for PM7:
 "Optimization of Parameters for Semiempirical Methods VI: More Modifications to the 
 NDDO Approximations and Re-optimization of Parameters", J. J. P. Stewart, J. Mol. Mod., 1:32, 19 (2013)
 https://link.springer.com/article/10.1007/s00894-012-1667-x

           Empirical Formula: C10 H14  =    24 atoms



      MOLECULAR POINT GROUP   :   C1  


      RHF CALCULATION, NO. OF DOUBLY OCCUPIED LEVELS = 27


          Geometry optimization using EF

          DIAGONAL MATRIX USED AS START HESSIAN

 CYCLE:     1 TIME:   0.012 TIME LEFT:  2.00D  GRAD.:    43.628 HEAT: -4.706003
 CYCLE:     2 TIME:   0.020 TIME LEFT:  2.00D  GRAD.:    38.574 HEAT: -5.454036
 CYCLE:     3 TIME:   0.008 TIME LEFT:  2.00D  GRAD.:    36.164 HEAT: -5.717097
 CYCLE:     4 TIME:   0.016 TIME LEFT:  2.00D  GRAD.:    20.780 HEAT: -5.984191
 CYCLE:     5 TIME:   0.016 TIME LEFT:  2.00D  GRAD.:    12.876 HEAT: -6.078229
 CYCLE:     6 TIME:   0.008 TIME LEFT:  2.00D  GRAD.:     9.672 HEAT: -6.115174
 CYCLE:     7 TIME:   0.008 TIME LEFT:  2.00D  GRAD.:     6.966 HEAT: -6.158364
 CYCLE:     8 TIME:   0.012 TIME LEFT:  2.00D  GRAD.:     9.994 HEAT: -6.162342
 CYCLE:     9 TIME:   0.008 TIME LEFT:  2.00D  GRAD.:     7.221 HEAT: -6.181619
 CYCLE:    10 TIME:   0.016 TIME LEFT:  2.00D  GRAD.:     4.367 HEAT: -6.195288
 CYCLE:    11 TIME:   0.008 TIME LEFT:  2.00D  GRAD.:     6.283 HEAT: -6.196059
 CYCLE:    12 TIME:   0.008 TIME LEFT:  2.00D  GRAD.:     2.571 HEAT: -6.212037
 CYCLE:    13 TIME:   0.012 TIME LEFT:  2.00D  GRAD.:     3.985 HEAT: -6.216108
 CYCLE:    14 TIME:   0.008 TIME LEFT:  2.00D  GRAD.:     3.907 HEAT: -6.224109
 CYCLE:    15 TIME:   0.016 TIME LEFT:  2.00D  GRAD.:     3.232 HEAT: -6.227926
 CYCLE:    16 TIME:   0.008 TIME LEFT:  2.00D  GRAD.:     2.233 HEAT: -6.233458
 CYCLE:    17 TIME:   0.016 TIME LEFT:  2.00D  GRAD.:     6.974 HEAT: -6.234059
 CYCLE:    18 TIME:   0.008 TIME LEFT:  2.00D  GRAD.:     4.801 HEAT: -6.248571
 CYCLE:    19 TIME:   0.020 TIME LEFT:  2.00D  GRAD.:     3.503 HEAT: -6.253262
 CYCLE:    20 TIME:   0.008 TIME LEFT:  2.00D  GRAD.:     3.098 HEAT: -6.257034
 CYCLE:    21 TIME:   0.020 TIME LEFT:  2.00D  GRAD.:     3.904 HEAT: -6.256962
 CYCLE:    22 TIME:   0.008 TIME LEFT:  2.00D  GRAD.:     3.084 HEAT: -6.261493
 CYCLE:    23 TIME:   0.016 TIME LEFT:  2.00D  GRAD.:     5.228 HEAT: -6.260195
 CYCLE:    24 TIME:   0.008 TIME LEFT:  2.00D  GRAD.:     3.295 HEAT: -6.264961
 CYCLE:    25 TIME:   0.012 TIME LEFT:  2.00D  GRAD.:     3.253 HEAT: -6.266872
 CYCLE:    26 TIME:   0.008 TIME LEFT:  2.00D  GRAD.:     2.676 HEAT: -6.268099
 CYCLE:    27 TIME:   0.008 TIME LEFT:  2.00D  GRAD.:     3.944 HEAT: -6.266619
 CYCLE:    28 TIME:   0.008 TIME LEFT:  2.00D  GRAD.:     3.337 HEAT: -6.267636
 CYCLE:    29 TIME:   0.008 TIME LEFT:  2.00D  GRAD.:     2.199 HEAT: -6.270501
 CYCLE:    30 TIME:   0.008 TIME LEFT:  2.00D  GRAD.:     4.219 HEAT: -6.265653
 CYCLE:    31 TIME:   0.008 TIME LEFT:  2.00D  GRAD.:     1.440 HEAT: -6.271912
 CYCLE:    32 TIME:   0.008 TIME LEFT:  2.00D  GRAD.:     2.355 HEAT: -6.270292
 CYCLE:    33 TIME:   0.008 TIME LEFT:  2.00D  GRAD.:     1.412 HEAT: -6.272127
 CYCLE:    34 TIME:   0.008 TIME LEFT:  2.00D  GRAD.:     2.613 HEAT: -6.269593
 CYCLE:    35 TIME:   0.008 TIME LEFT:  2.00D  GRAD.:     0.830 HEAT: -6.272810

     GRADIENT =  0.82982 IS LESS THAN CUTOFF =  1.00000



 -------------------------------------------------------------------------------
 PM7 XYZ

 freesolv_199 - geometry optimisation


     GEOMETRY OPTIMISED USING EIGENVECTOR FOLLOWING (EF).     
     SCF FIELD WAS ACHIEVED                                   


                              PM7 CALCULATION
                                                       MOPAC v23.0.3 Linux
                                                       Fri Jul 25 15:22:20 2025




          FINAL HEAT OF FORMATION =         -6.27281 KCAL/MOL =     -26.24544 KJ/MOL


          COSMO AREA              =        191.00 SQUARE ANGSTROMS
          COSMO VOLUME            =        195.04 CUBIC ANGSTROMS

          GRADIENT NORM           =          0.82982          =       0.16939 PER ATOM
          IONIZATION POTENTIAL    =          9.094431 EV
          HOMO LUMO ENERGIES (EV) =         -9.094  0.419
          NO. OF FILLED LEVELS    =         27
          MOLECULAR WEIGHT        =        134.2206         POINT GROUP:  C1  

          MOLECULAR DIMENSIONS (Angstroms)

            Atom       Atom       Distance
            H    24    H    13     8.18610
            H    14    H    16     4.69760
            H    21    H    12     4.42821


          SCF CALCULATIONS        =         51

          WALL-CLOCK TIME         =      0.391 SECONDS
          COMPUTATION TIME        =      7.761 SECONDS




   ATOM   CHEMICAL          X               Y               Z
  NUMBER   SYMBOL      (ANGSTROMS)     (ANGSTROMS)     (ANGSTROMS)

     1       C          3.80014478  *   0.11860490  *  -0.23767968  *
     2       C          2.31984663  *   0.08234603  *  -0.05966657  *
     3       C          1.47525592  *   0.09829569  *  -1.17243877  *
     4       C          0.09475780  *   0.04959804  *  -1.00438286  *
     5       C         -0.46045785  *  -0.01613549  *   0.27577713  *
     6       C          0.38555586  *  -0.03209218  *   1.38653665  *
     7       C          1.76713601  *   0.01636994  *   1.22064368  *
     8       C         -1.95282903  *  -0.07162659  *   0.47230569  *
     9       C         -2.61106954  *   1.18925780  *  -0.10391870  *
    10       C         -2.52553880  *  -1.33541310  *  -0.18201206  *
    11       H          4.09774199  *   0.66108664  *  -1.14510207  *
    12       H          4.20636260  *  -0.90120060  *  -0.32047352  *
    13       H          4.30905882  *   0.60296825  *   0.60636472  *
    14       H          1.89626156  *   0.14810403  *  -2.17365219  *
    15       H         -0.55571697  *   0.06301673  *  -1.87679053  *
    16       H         -0.03282444  *  -0.08253577  *   2.38982061  *
    17       H          2.41657188  *   0.00192940  *   2.09314242  *
    18       H         -2.18371016  *  -0.11298646  *   1.56811467  *
    19       H         -2.47817285  *   1.25594666  *  -1.18892902  *
    20       H         -3.68677705  *   1.20155079  *   0.09914762  *
    21       H         -2.17614974  *   2.09485355  *   0.33489678  *
    22       H         -2.38847602  *  -1.32694591  *  -1.26863226  *
    23       H         -2.03124920  *  -2.23552078  *   0.20230529  *
    24       H         -3.59803422  *  -1.43201072  *   0.01560403  *

                             CARTESIAN COORDINATES

   1    C        3.800144778     0.118604902    -0.237679681
   2    C        2.319846629     0.082346032    -0.059666570
   3    C        1.475255919     0.098295691    -1.172438773
   4    C        0.094757796     0.049598042    -1.004382858
   5    C       -0.460457846    -0.016135492     0.275777132
   6    C        0.385555860    -0.032092184     1.386536655
   7    C        1.767136013     0.016369941     1.220643682
   8    C       -1.952829034    -0.071626587     0.472305688
   9    C       -2.611069544     1.189257804    -0.103918702
  10    C       -2.525538800    -1.335413102    -0.182012063
  11    H        4.097741989     0.661086636    -1.145102072
  12    H        4.206362596    -0.901200597    -0.320473521
  13    H        4.309058817     0.602968248     0.606364716
  14    H        1.896261556     0.148104028    -2.173652192
  15    H       -0.555716967     0.063016733    -1.876790531
  16    H       -0.032824441    -0.082535768     2.389820612
  17    H        2.416571876     0.001929396     2.093142420
  18    H       -2.183710162    -0.112986464     1.568114670
  19    H       -2.478172850     1.255946665    -1.188929015
  20    H       -3.686777053     1.201550791     0.099147616
  21    H       -2.176149742     2.094853553     0.334896778
  22    H       -2.388476018    -1.326945913    -1.268632257
  23    H       -2.031249199    -2.235520781     0.202305289
  24    H       -3.598034224    -1.432010717     0.015604028


           Empirical Formula: C10 H14  =    24 atoms



      MOLECULAR POINT GROUP   :   C1  


                  EIGENVALUES  
 -30.60471 -28.84890 -26.56800 -25.70267 -23.89045 -23.33094 -21.22870 -20.36706
 -19.11512 -16.87764 -15.95546 -15.16652 -14.71526 -14.69282 -14.41828 -14.24153
 -14.04544 -13.27372 -13.14632 -12.68749 -12.58141 -11.95240 -11.88632 -11.35482
 -11.29964  -9.66689  -9.09443   0.41906   0.47961   2.73479   3.91532   4.27005
   4.27898   4.45215   4.75459   5.20968   5.32787   5.42494   5.49310   5.64990
   5.77830   5.79720   5.90459   5.91925   5.97420   6.01051   6.11776   6.29706
   6.35562   6.44918   6.50648   6.86070   7.03880   7.10871


              NET ATOMIC CHARGES AND DIPOLE CONTRIBUTIONS

  ATOM NO.   TYPE          CHARGE      No. of ELECS.   s-Pop       p-Pop       
    1          C          -0.452182        4.4522     1.04915     3.40303
    2          C           0.031759        3.9682     1.06536     2.90289
    3          C          -0.180587        4.1806     1.08287     3.09771
    4          C          -0.154607        4.1546     1.08313     3.07147
    5          C          -0.017097        4.0171     1.07558     2.94152
    6          C          -0.165806        4.1658     1.08434     3.08146
    7          C          -0.177924        4.1779     1.08261     3.09532
    8          C          -0.075431        4.0754     1.05346     3.02198
    9          C          -0.445539        4.4455     1.05565     3.38989
   10          C          -0.445609        4.4456     1.05558     3.39003
   11          H           0.154966        0.8450     0.84503
   12          H           0.160154        0.8398     0.83985
   13          H           0.154744        0.8453     0.84526
   14          H           0.150664        0.8493     0.84934
   15          H           0.150338        0.8497     0.84966
   16          H           0.149078        0.8509     0.85092
   17          H           0.150788        0.8492     0.84921
   18          H           0.137251        0.8627     0.86275
   19          H           0.146385        0.8536     0.85362
   20          H           0.143370        0.8566     0.85663
   21          H           0.147736        0.8523     0.85226
   22          H           0.146482        0.8535     0.85352
   23          H           0.147641        0.8524     0.85236
   24          H           0.143428        0.8566     0.85657
 DIPOLE           X         Y         Z       TOTAL
 POINT-CHG.    -0.007    -0.056    -0.043     0.071
 HYBRID         0.076    -0.004    -0.108     0.132
 SUM            0.069    -0.060    -0.151     0.176


          ATOMIC ORBITAL ELECTRON POPULATIONS

     Atom    s        px        py        pz   
    1  C   1.04915   1.04206   1.17770   1.18327
    2  C   1.06536   0.95674   0.96916   0.97698
    3  C   1.08287   1.00254   1.02934   1.06584
    4  C   1.08313   1.01659   1.00688   1.04799
    5  C   1.07558   0.98039   0.98127   0.97986
    6  C   1.08434   1.00193   1.01519   1.06434
    7  C   1.08261   1.02034   1.02797   1.04701
    8  C   1.05346   0.96305   0.96695   1.09198
    9  C   1.05565   1.14507   1.08378   1.16103
   10  C   1.05558   1.15135   1.08314   1.15554
   11  H   0.84503
   12  H   0.83985
   13  H   0.84526
   14  H   0.84934
   15  H   0.84966
   16  H   0.85092
   17  H   0.84921
   18  H   0.86275
   19  H   0.85362
   20  H   0.85663
   21  H   0.85226
   22  H   0.85352
   23  H   0.85236
   24  H   0.85657

 **********************
 *                    *
 * JOB ENDED NORMALLY *
 *                    *
 **********************



 TOTAL JOB TIME:             0.39 SECONDS

 == MOPAC DONE ==
