 *******************************************************************************
 **                                                                           **
 **                              MOPAC v23.0.3                                **
 **                                                                           **
 *******************************************************************************
 **          Digital Object Identifier (DOI): 10.5281/zenodo.6511958          **
 **    Visit the DOI location for information on how to cite this program.    **
 *******************************************************************************

                              PM7 CALCULATION RESULTS

 *******************************************************************************
 *  CALCULATION DONE:                                Fri Jul 25 15:23:11 2025  *
 *  PM7        - The PM7 Hamiltonian to be used
 *  XYZ        - CARTESIAN COORDINATE SYSTEM TO BE USED
 *  T=         - A TIME OF 172800.0 SECONDS REQUESTED
 *  DUMP=N     - RESTART FILE WRITTEN EVERY 7200.0 SECONDS REQUESTED
 *******************************************************************************
PM7 XYZ

 freesolv_290 - geometry optimisation
   ATOM   CHEMICAL          X               Y               Z
  NUMBER   SYMBOL      (ANGSTROMS)     (ANGSTROMS)     (ANGSTROMS)

     1       C         -4.62453200  *  -0.20009200  *  -0.05757900  *
     2       C         -3.12160700  *  -0.21415300  *   0.20438100  *
     3       C         -2.33925100  *  -0.52902000  *  -1.07345900  *
     4       O         -0.94040200  *  -0.58661900  *  -0.80113900  *
     5       C         -0.14390500  *   0.54847900  *  -0.60168300  *
     6       O         -0.64489000  *   1.70142000  *  -0.71518700  *
     7       C          1.28822800  *   0.39196900  *  -0.26487100  *
     8       C          1.85108800  *  -0.89043900  *  -0.13602800  *
     9       C          3.20410100  *  -1.04128200  *   0.18311900  *
    10       C          4.01202800  *   0.08612200  *   0.37781200  *
    11       C          3.46006800  *   1.36403200  *   0.25182100  *
    12       C          2.10750500  *   1.51905600  *  -0.06717600  *
    13       O          5.36109600  *  -0.05262500  *   0.69606500  *
    14       H         -4.96180900  *  -1.19264600  *  -0.42522400  *
    15       H         -4.87709000  *   0.57596500  *  -0.81127900  *
    16       H         -5.16389600  *   0.03126800  *   0.88503300  *
    17       H         -2.81591700  *   0.77821600  *   0.59907500  *
    18       H         -2.89335600  *  -0.98241300  *   0.97456500  *
    19       H         -2.65838000  *  -1.51970600  *  -1.46177900  *
    20       H         -2.54535700  *   0.23139600  *  -1.85864100  *
    21       H          1.24770500  *  -1.77769200  *  -0.28109700  *
    22       H          3.62319900  *  -2.03488300  *   0.27891000  *
    23       H          4.08015700  *   2.23882600  *   0.40142200  *
    24       H          1.70449300  *   2.51993500  *  -0.15870500  *
    25       H          5.79072300  *  -0.96511500  *   0.79444500  *



          CARTESIAN COORDINATES 

    NO.       ATOM           X           Y           Z

     1         C         -4.6245     -0.2001     -0.0576
     2         C         -3.1216     -0.2142      0.2044
     3         C         -2.3393     -0.5290     -1.0735
     4         O         -0.9404     -0.5866     -0.8011
     5         C         -0.1439      0.5485     -0.6017
     6         O         -0.6449      1.7014     -0.7152
     7         C          1.2882      0.3920     -0.2649
     8         C          1.8511     -0.8904     -0.1360
     9         C          3.2041     -1.0413      0.1831
    10         C          4.0120      0.0861      0.3778
    11         C          3.4601      1.3640      0.2518
    12         C          2.1075      1.5191     -0.0672
    13         O          5.3611     -0.0526      0.6961
    14         H         -4.9618     -1.1926     -0.4252
    15         H         -4.8771      0.5760     -0.8113
    16         H         -5.1639      0.0313      0.8850
    17         H         -2.8159      0.7782      0.5991
    18         H         -2.8934     -0.9824      0.9746
    19         H         -2.6584     -1.5197     -1.4618
    20         H         -2.5454      0.2314     -1.8586
    21         H          1.2477     -1.7777     -0.2811
    22         H          3.6232     -2.0349      0.2789
    23         H          4.0802      2.2388      0.4014
    24         H          1.7045      2.5199     -0.1587
    25         H          5.7907     -0.9651      0.7944

 General Reference for PM7:
 "Optimization of Parameters for Semiempirical Methods VI: More Modifications to the 
 NDDO Approximations and Re-optimization of Parameters", J. J. P. Stewart, J. Mol. Mod., 1:32, 19 (2013)
 https://link.springer.com/article/10.1007/s00894-012-1667-x

           Empirical Formula: C10 H12 O3  =    25 atoms



      MOLECULAR POINT GROUP   :   C1  


      RHF CALCULATION, NO. OF DOUBLY OCCUPIED LEVELS = 35


          Geometry optimization using EF

          DIAGONAL MATRIX USED AS START HESSIAN

 CYCLE:     1 TIME:   0.023 TIME LEFT:  2.00D  GRAD.:   163.217 HEAT: -105.7476
 CYCLE:     2 TIME:   0.031 TIME LEFT:  2.00D  GRAD.:   195.527 HEAT: -107.9193
 CYCLE:     3 TIME:   0.016 TIME LEFT:  2.00D  GRAD.:    96.823 HEAT: -112.4031
 CYCLE:     4 TIME:   0.016 TIME LEFT:  2.00D  GRAD.:   116.134 HEAT: -113.3369
 CYCLE:     5 TIME:   0.012 TIME LEFT:  2.00D  GRAD.:    93.896 HEAT: -114.8788
 CYCLE:     6 TIME:   0.016 TIME LEFT:  2.00D  GRAD.:   119.452 HEAT: -115.2393
 CYCLE:     7 TIME:   0.023 TIME LEFT:  2.00D  GRAD.:    50.105 HEAT: -117.6095
 CYCLE:     8 TIME:   0.020 TIME LEFT:  2.00D  GRAD.:    44.537 HEAT: -117.9787
 CYCLE:     9 TIME:   0.012 TIME LEFT:  2.00D  GRAD.:    23.731 HEAT: -118.4827
 CYCLE:    10 TIME:   0.012 TIME LEFT:  2.00D  GRAD.:    49.626 HEAT: -118.5824
 CYCLE:    11 TIME:   0.008 TIME LEFT:  2.00D  GRAD.:    42.020 HEAT: -119.0658
 CYCLE:    12 TIME:   0.023 TIME LEFT:  2.00D  GRAD.:    49.816 HEAT: -119.0707
 CYCLE:    13 TIME:   0.012 TIME LEFT:  2.00D  GRAD.:    23.620 HEAT: -119.5548
 CYCLE:    14 TIME:   0.023 TIME LEFT:  2.00D  GRAD.:    28.947 HEAT: -119.5699
 CYCLE:    15 TIME:   0.008 TIME LEFT:  2.00D  GRAD.:    15.699 HEAT: -119.7903
 CYCLE:    16 TIME:   0.020 TIME LEFT:  2.00D  GRAD.:    16.916 HEAT: -119.8395
 CYCLE:    17 TIME:   0.012 TIME LEFT:  2.00D  GRAD.:     7.978 HEAT: -119.9603
 CYCLE:    18 TIME:   0.020 TIME LEFT:  2.00D  GRAD.:    16.245 HEAT: -119.9801
 CYCLE:    19 TIME:   0.012 TIME LEFT:  2.00D  GRAD.:    10.977 HEAT: -120.0617
 CYCLE:    20 TIME:   0.020 TIME LEFT:  2.00D  GRAD.:     9.283 HEAT: -120.0969
 CYCLE:    21 TIME:   0.012 TIME LEFT:  2.00D  GRAD.:     5.004 HEAT: -120.1477
 CYCLE:    22 TIME:   0.008 TIME LEFT:  2.00D  GRAD.:    12.282 HEAT: -120.1760
 CYCLE:    23 TIME:   0.012 TIME LEFT:  2.00D  GRAD.:     8.555 HEAT: -120.2452
 CYCLE:    24 TIME:   0.027 TIME LEFT:  2.00D  GRAD.:     5.891 HEAT: -120.2655
 CYCLE:    25 TIME:   0.012 TIME LEFT:  2.00D  GRAD.:     2.702 HEAT: -120.2864
 CYCLE:    26 TIME:   0.012 TIME LEFT:  2.00D  GRAD.:     7.538 HEAT: -120.2995
 CYCLE:    27 TIME:   0.008 TIME LEFT:  2.00D  GRAD.:     3.624 HEAT: -120.3307
 CYCLE:    28 TIME:   0.039 TIME LEFT:  2.00D  GRAD.:     2.724 HEAT: -120.3355
 CYCLE:    29 TIME:   0.012 TIME LEFT:  2.00D  GRAD.:     1.401 HEAT: -120.3418
 CYCLE:    30 TIME:   0.012 TIME LEFT:  2.00D  GRAD.:     8.576 HEAT: -120.3487
 CYCLE:    31 TIME:   0.020 TIME LEFT:  2.00D  GRAD.:     6.232 HEAT: -120.3625
 CYCLE:    32 TIME:   0.027 TIME LEFT:  2.00D  GRAD.:     2.974 HEAT: -120.3748
 CYCLE:    33 TIME:   0.012 TIME LEFT:  2.00D  GRAD.:     3.689 HEAT: -120.3770
 CYCLE:    34 TIME:   0.008 TIME LEFT:  2.00D  GRAD.:     2.449 HEAT: -120.3848
 CYCLE:    35 TIME:   0.031 TIME LEFT:  2.00D  GRAD.:     2.590 HEAT: -120.3871
 CYCLE:    36 TIME:   0.012 TIME LEFT:  2.00D  GRAD.:     2.153 HEAT: -120.3945
 CYCLE:    37 TIME:   0.020 TIME LEFT:  2.00D  GRAD.:     4.399 HEAT: -120.3971
 CYCLE:    38 TIME:   0.012 TIME LEFT:  2.00D  GRAD.:     4.911 HEAT: -120.4020
 CYCLE:    39 TIME:   0.020 TIME LEFT:  2.00D  GRAD.:     5.179 HEAT: -120.4036
 CYCLE:    40 TIME:   0.008 TIME LEFT:  2.00D  GRAD.:     3.846 HEAT: -120.4097
 CYCLE:    41 TIME:   0.020 TIME LEFT:  2.00D  GRAD.:     3.236 HEAT: -120.4133
 CYCLE:    42 TIME:   0.008 TIME LEFT:  2.00D  GRAD.:     2.887 HEAT: -120.4145
 CYCLE:    43 TIME:   0.012 TIME LEFT:  2.00D  GRAD.:     3.014 HEAT: -120.4170
 CYCLE:    44 TIME:   0.008 TIME LEFT:  2.00D  GRAD.:     2.960 HEAT: -120.4171
 CYCLE:    45 TIME:   0.012 TIME LEFT:  2.00D  GRAD.:     2.502 HEAT: -120.4195
 CYCLE:    46 TIME:   0.008 TIME LEFT:  2.00D  GRAD.:     2.893 HEAT: -120.4190
 CYCLE:    47 TIME:   0.012 TIME LEFT:  2.00D  GRAD.:     2.700 HEAT: -120.4200
 CYCLE:    48 TIME:   0.008 TIME LEFT:  2.00D  GRAD.:     1.755 HEAT: -120.4217
 CYCLE:    49 TIME:   0.012 TIME LEFT:  2.00D  GRAD.:     1.274 HEAT: -120.4234
 CYCLE:    50 TIME:   0.008 TIME LEFT:  2.00D  GRAD.:     0.735 HEAT: -120.4242

     GRADIENT =  0.73455 IS LESS THAN CUTOFF =  1.00000



 -------------------------------------------------------------------------------
 PM7 XYZ

 freesolv_290 - geometry optimisation


     GEOMETRY OPTIMISED USING EIGENVECTOR FOLLOWING (EF).     
     SCF FIELD WAS ACHIEVED                                   


                              PM7 CALCULATION
                                                       MOPAC v23.0.3 Linux
                                                       Fri Jul 25 15:23:12 2025




          FINAL HEAT OF FORMATION =       -120.42422 KCAL/MOL =    -503.85492 KJ/MOL


          COSMO AREA              =        219.58 SQUARE ANGSTROMS
          COSMO VOLUME            =        220.82 CUBIC ANGSTROMS

          GRADIENT NORM           =          0.73455          =       0.14691 PER ATOM
          IONIZATION POTENTIAL    =          9.616654 EV
          HOMO LUMO ENERGIES (EV) =         -9.617 -0.507
          NO. OF FILLED LEVELS    =         35
          MOLECULAR WEIGHT        =        180.2030         POINT GROUP:  C1  

          MOLECULAR DIMENSIONS (Angstroms)

            Atom       Atom       Distance
            H    25    H    16    10.69462
            H    23    H    19     4.68421
            H    20    H    18     3.09431


          SCF CALCULATIONS        =         72

          WALL-CLOCK TIME         =      0.785 SECONDS
          COMPUTATION TIME        =     15.682 SECONDS




   ATOM   CHEMICAL          X               Y               Z
  NUMBER   SYMBOL      (ANGSTROMS)     (ANGSTROMS)     (ANGSTROMS)

     1       C         -4.50847960  *  -0.21199850  *  -0.07882397  *
     2       C         -3.01337886  *  -0.19729965  *   0.22467164  *
     3       C         -2.21620347  *  -0.49616772  *  -1.04406904  *
     4       O         -0.82459448  *  -0.56731342  *  -0.73008033  *
     5       C         -0.15911969  *   0.60939988  *  -0.58910132  *
     6       O         -0.70256020  *   1.67690235  *  -0.73531999  *
     7       C          1.25351681  *   0.38153870  *  -0.25763922  *
     8       C          1.77995261  *  -0.90673811  *  -0.13818722  *
     9       C          3.12455382  *  -1.08326197  *   0.17178986  *
    10       C          3.91684709  *   0.05402924  *   0.35672737  *
    11       C          3.40767822  *   1.35557667  *   0.24507579  *
    12       C          2.06589979  *   1.50889799  *  -0.06506566  *
    13       O          5.23415379  *  -0.02216634  *   0.65874319  *
    14       H         -4.83723748  *  -1.18576986  *  -0.45767188  *
    15       H         -4.77350305  *   0.54491691  *  -0.82697643  *
    16       H         -5.09589729  *   0.00424823  *   0.82150205  *
    17       H         -2.71169333  *   0.79105408  *   0.63056468  *
    18       H         -2.76511351  *  -0.93382184  *   1.01261654  *
    19       H         -2.40564793  *  -1.51090184  *  -1.43914724  *
    20       H         -2.38578007  *   0.25722935  *  -1.83352510  *
    21       H          1.13583294  *  -1.77828219  *  -0.28848284  *
    22       H          3.54413097  *  -2.07845977  *   0.26567114  *
    23       H          4.06234800  *   2.20964192  *   0.39978456  *
    24       H          1.62846971  *   2.50870680  *  -0.16288095  *
    25       H          5.55525928  *  -0.95455625  *   0.72985865  *

                             CARTESIAN COORDINATES

   1    C       -4.508479603    -0.211998499    -0.078823970
   2    C       -3.013378860    -0.197299651     0.224671636
   3    C       -2.216203471    -0.496167724    -1.044069037
   4    O       -0.824594477    -0.567313422    -0.730080329
   5    C       -0.159119694     0.609399879    -0.589101319
   6    O       -0.702560203     1.676902348    -0.735319995
   7    C        1.253516808     0.381538697    -0.257639223
   8    C        1.779952609    -0.906738113    -0.138187215
   9    C        3.124553819    -1.083261972     0.171789857
  10    C        3.916847087     0.054029239     0.356727371
  11    C        3.407678216     1.355576674     0.245075790
  12    C        2.065899793     1.508897987    -0.065065660
  13    O        5.234153793    -0.022166339     0.658743190
  14    H       -4.837237476    -1.185769859    -0.457671876
  15    H       -4.773503052     0.544916913    -0.826976433
  16    H       -5.095897288     0.004248235     0.821502052
  17    H       -2.711693332     0.791054075     0.630564684
  18    H       -2.765113515    -0.933821842     1.012616539
  19    H       -2.405647934    -1.510901844    -1.439147244
  20    H       -2.385780070     0.257229353    -1.833525100
  21    H        1.135832937    -1.778282187    -0.288482840
  22    H        3.544130971    -2.078459769     0.265671137
  23    H        4.062348002     2.209641919     0.399784560
  24    H        1.628469710     2.508706803    -0.162880951
  25    H        5.555259279    -0.954556250     0.729858652


           Empirical Formula: C10 H12 O3  =    25 atoms



      MOLECULAR POINT GROUP   :   C1  


                  EIGENVALUES  
 -31.49041 -31.22532 -30.44560 -29.91701 -28.09950 -26.52761 -26.31480 -23.98789
 -22.32832 -21.75661 -20.68441 -19.86993 -18.83965 -17.54444 -16.93844 -16.02201
 -15.84504 -15.72351 -15.30431 -14.91383 -14.83155 -14.40780 -14.33975 -13.99389
 -13.30730 -13.15854 -12.72549 -12.55471 -12.42688 -12.22558 -11.58093 -11.03297
 -10.73451 -10.41226  -9.61665  -0.50679  -0.20397   1.33820   1.69183   2.03239
   2.29632   3.36915   3.73659   3.93537   4.00264   4.15799   4.38213   4.48989
   4.70780   4.74019   5.15842   5.29070   5.40471   5.41600   5.51834   5.68620
   5.72099   5.75655   5.83700   5.93649   6.05746   6.06239   6.59120   6.88399


              NET ATOMIC CHARGES AND DIPOLE CONTRIBUTIONS

  ATOM NO.   TYPE          CHARGE      No. of ELECS.   s-Pop       p-Pop       
    1          C          -0.435722        4.4357     1.05039     3.38533
    2          C          -0.295081        4.2951     1.05986     3.23522
    3          C          -0.003588        4.0036     1.09449     2.90909
    4          O          -0.442215        6.4422     1.86494     4.57727
    5          C           0.618686        3.3813     1.10635     2.27497
    6          O          -0.513916        6.5139     1.87775     4.63616
    7          C          -0.228535        4.2285     1.06034     3.16820
    8          C           0.008242        3.9918     1.09071     2.90105
    9          C          -0.345737        4.3457     1.07529     3.27045
   10          C           0.340132        3.6599     1.08626     2.57360
   11          C          -0.278121        4.2781     1.07471     3.20341
   12          C          -0.006166        4.0062     1.09341     2.91276
   13          O          -0.466308        6.4663     1.83687     4.62943
   14          H           0.141619        0.8584     0.85838
   15          H           0.147669        0.8523     0.85233
   16          H           0.146922        0.8531     0.85308
   17          H           0.161442        0.8386     0.83856
   18          H           0.146646        0.8534     0.85335
   19          H           0.137166        0.8628     0.86283
   20          H           0.140616        0.8594     0.85938
   21          H           0.169755        0.8302     0.83025
   22          H           0.166154        0.8338     0.83385
   23          H           0.182800        0.8172     0.81720
   24          H           0.176366        0.8236     0.82363
   25          H           0.331174        0.6688     0.66883
 DIPOLE           X         Y         Z       TOTAL
 POINT-CHG.     0.344    -2.610     0.302     2.650
 HYBRID         0.395    -0.371     0.110     0.553
 SUM            0.739    -2.981     0.412     3.099


          ATOMIC ORBITAL ELECTRON POPULATIONS

     Atom    s        px        py        pz   
    1  C   1.05039   1.03763   1.17361   1.17409
    2  C   1.05986   0.99472   1.18005   1.06045
    3  C   1.09449   0.74727   1.13087   1.03096
    4  O   1.86494   1.32630   1.42847   1.82250
    5  C   1.10635   0.83744   0.75849   0.67904
    6  O   1.87775   1.72720   1.38147   1.52749
    7  C   1.06034   0.99242   1.00636   1.16941
    8  C   1.09071   0.99302   1.03606   0.87197
    9  C   1.07529   1.03006   1.07202   1.16836
   10  C   1.08626   0.76826   0.96605   0.83929
   11  C   1.07471   1.03373   1.04630   1.12337
   12  C   1.09341   0.97412   1.06203   0.87661
   13  O   1.83687   1.33409   1.43480   1.86055
   14  H   0.85838
   15  H   0.85233
   16  H   0.85308
   17  H   0.83856
   18  H   0.85335
   19  H   0.86283
   20  H   0.85938
   21  H   0.83025
   22  H   0.83385
   23  H   0.81720
   24  H   0.82363
   25  H   0.66883

 **********************
 *                    *
 * JOB ENDED NORMALLY *
 *                    *
 **********************



 TOTAL JOB TIME:             0.79 SECONDS

 == MOPAC DONE ==
