 *******************************************************************************
 **                                                                           **
 **                              MOPAC v23.0.3                                **
 **                                                                           **
 *******************************************************************************
 **          Digital Object Identifier (DOI): 10.5281/zenodo.6511958          **
 **    Visit the DOI location for information on how to cite this program.    **
 *******************************************************************************

                              PM7 CALCULATION RESULTS

 *******************************************************************************
 *  CALCULATION DONE:                                Fri Jul 25 15:22:05 2025  *
 *  PM7        - The PM7 Hamiltonian to be used
 *  XYZ        - CARTESIAN COORDINATE SYSTEM TO BE USED
 *  T=         - A TIME OF 172800.0 SECONDS REQUESTED
 *  DUMP=N     - RESTART FILE WRITTEN EVERY 7200.0 SECONDS REQUESTED
 *******************************************************************************
PM7 XYZ

 freesolv_186 - geometry optimisation
   ATOM   CHEMICAL          X               Y               Z
  NUMBER   SYMBOL      (ANGSTROMS)     (ANGSTROMS)     (ANGSTROMS)

     1       C          4.15916800  *  -0.40199800  *   0.01668900  *
     2       C          2.66561000  *  -0.42055300  *  -0.12027400  *
     3       C          2.00932900  *  -1.58425600  *  -0.54656400  *
     4       C          0.62097800  *  -1.59153600  *  -0.71075700  *
     5       C         -0.13281800  *  -0.43403700  *  -0.45289400  *
     6       C          0.53243300  *   0.73971100  *  -0.05918900  *
     7       C          1.92076400  *   0.74621700  *   0.10423200  *
     8       C         -1.60239800  *  -0.44528200  *  -0.64363900  *
     9       O         -2.09914800  *  -1.19892600  *  -1.52491600  *
    10       N         -2.47521500  *   0.39234700  *   0.13893100  *
    11       C         -2.22198500  *   0.64422600  *   1.55985000  *
    12       C         -3.67035800  *   0.96006900  *  -0.48527100  *
    13       H          4.47211100  *   0.32631900  *   0.79495200  *
    14       H          4.53791400  *  -1.40365500  *   0.31215100  *
    15       H          4.61523900  *  -0.11391300  *  -0.95339200  *
    16       H          2.57208100  *  -2.48667400  *  -0.75166300  *
    17       H          0.13473800  *  -2.50462500  *  -1.03161300  *
    18       H         -0.01720000  *   1.65819400  *   0.10136700  *
    19       H          2.41518600  *   1.66317000  *   0.40063200  *
    20       H         -1.96482900  *   1.71351100  *   1.71090400  *
    21       H         -1.39315100  *   0.01105800  *   1.94127300  *
    22       H         -3.13051300  *   0.40310400  *   2.15129300  *
    23       H         -4.34789300  *   0.14444000  *  -0.81498400  *
    24       H         -3.37769200  *   1.57259000  *  -1.36409200  *
    25       H         -4.22235200  *   1.61049800  *   0.22697300  *



          CARTESIAN COORDINATES 

    NO.       ATOM           X           Y           Z

     1         C          4.1592     -0.4020      0.0167
     2         C          2.6656     -0.4206     -0.1203
     3         C          2.0093     -1.5843     -0.5466
     4         C          0.6210     -1.5915     -0.7108
     5         C         -0.1328     -0.4340     -0.4529
     6         C          0.5324      0.7397     -0.0592
     7         C          1.9208      0.7462      0.1042
     8         C         -1.6024     -0.4453     -0.6436
     9         O         -2.0991     -1.1989     -1.5249
    10         N         -2.4752      0.3923      0.1389
    11         C         -2.2220      0.6442      1.5598
    12         C         -3.6704      0.9601     -0.4853
    13         H          4.4721      0.3263      0.7950
    14         H          4.5379     -1.4037      0.3122
    15         H          4.6152     -0.1139     -0.9534
    16         H          2.5721     -2.4867     -0.7517
    17         H          0.1347     -2.5046     -1.0316
    18         H         -0.0172      1.6582      0.1014
    19         H          2.4152      1.6632      0.4006
    20         H         -1.9648      1.7135      1.7109
    21         H         -1.3932      0.0111      1.9413
    22         H         -3.1305      0.4031      2.1513
    23         H         -4.3479      0.1444     -0.8150
    24         H         -3.3777      1.5726     -1.3641
    25         H         -4.2224      1.6105      0.2270

 General Reference for PM7:
 "Optimization of Parameters for Semiempirical Methods VI: More Modifications to the 
 NDDO Approximations and Re-optimization of Parameters", J. J. P. Stewart, J. Mol. Mod., 1:32, 19 (2013)
 https://link.springer.com/article/10.1007/s00894-012-1667-x

           Empirical Formula: C10 H13 N O  =    25 atoms



      MOLECULAR POINT GROUP   :   C1  


      RHF CALCULATION, NO. OF DOUBLY OCCUPIED LEVELS = 32


          Geometry optimization using EF

          DIAGONAL MATRIX USED AS START HESSIAN

 CYCLE:     1 TIME:   0.027 TIME LEFT:  2.00D  GRAD.:   131.947 HEAT: -18.89741
 CYCLE:     2 TIME:   0.051 TIME LEFT:  2.00D  GRAD.:    47.681 HEAT: -22.30102
 CYCLE:     3 TIME:   0.008 TIME LEFT:  2.00D  GRAD.:    90.367 HEAT: -22.37889
 CYCLE:     4 TIME:   0.012 TIME LEFT:  2.00D  GRAD.:    49.175 HEAT: -23.65150
 CYCLE:     5 TIME:   0.020 TIME LEFT:  2.00D  GRAD.:    22.190 HEAT: -24.35197
 CYCLE:     6 TIME:   0.020 TIME LEFT:  2.00D  GRAD.:    22.070 HEAT: -24.55321
 CYCLE:     7 TIME:   0.012 TIME LEFT:  2.00D  GRAD.:    26.119 HEAT: -24.67765
 CYCLE:     8 TIME:   0.008 TIME LEFT:  2.00D  GRAD.:    21.086 HEAT: -24.86166
 CYCLE:     9 TIME:   0.012 TIME LEFT:  2.00D  GRAD.:    33.792 HEAT: -24.86674
 CYCLE:    10 TIME:   0.008 TIME LEFT:  2.00D  GRAD.:    19.302 HEAT: -25.23350
 CYCLE:    11 TIME:   0.027 TIME LEFT:  2.00D  GRAD.:    11.517 HEAT: -25.33870
 CYCLE:    12 TIME:   0.012 TIME LEFT:  2.00D  GRAD.:    12.101 HEAT: -25.41808
 CYCLE:    13 TIME:   0.008 TIME LEFT:  2.00D  GRAD.:    13.612 HEAT: -25.54946
 CYCLE:    14 TIME:   0.012 TIME LEFT:  2.00D  GRAD.:    26.941 HEAT: -25.59545
 CYCLE:    15 TIME:   0.012 TIME LEFT:  2.00D  GRAD.:    19.257 HEAT: -25.80937
 CYCLE:    16 TIME:   0.016 TIME LEFT:  2.00D  GRAD.:    19.494 HEAT: -25.88230
 CYCLE:    17 TIME:   0.012 TIME LEFT:  2.00D  GRAD.:    20.480 HEAT: -25.97105
 CYCLE:    18 TIME:   0.008 TIME LEFT:  2.00D  GRAD.:    19.946 HEAT: -26.03472
 CYCLE:    19 TIME:   0.012 TIME LEFT:  2.00D  GRAD.:    11.338 HEAT: -26.19279
 CYCLE:    20 TIME:   0.020 TIME LEFT:  2.00D  GRAD.:    16.240 HEAT: -26.21272
 CYCLE:    21 TIME:   0.008 TIME LEFT:  2.00D  GRAD.:     6.274 HEAT: -26.32475
 CYCLE:    22 TIME:   0.012 TIME LEFT:  2.00D  GRAD.:    22.035 HEAT: -26.33841
 CYCLE:    23 TIME:   0.008 TIME LEFT:  2.00D  GRAD.:    13.887 HEAT: -26.51172
 CYCLE:    24 TIME:   0.027 TIME LEFT:  2.00D  GRAD.:    12.178 HEAT: -26.53587
 CYCLE:    25 TIME:   0.012 TIME LEFT:  2.00D  GRAD.:     4.153 HEAT: -26.60410
 CYCLE:    26 TIME:   0.012 TIME LEFT:  2.00D  GRAD.:     6.383 HEAT: -26.67134
 CYCLE:    27 TIME:   0.008 TIME LEFT:  2.00D  GRAD.:     7.050 HEAT: -26.77708
 CYCLE:    28 TIME:   0.012 TIME LEFT:  2.00D  GRAD.:    19.221 HEAT: -26.87284
 CYCLE:    29 TIME:   0.012 TIME LEFT:  2.00D  GRAD.:    10.998 HEAT: -27.08723
 CYCLE:    30 TIME:   0.012 TIME LEFT:  2.00D  GRAD.:    23.203 HEAT: -27.10385
 CYCLE:    31 TIME:   0.008 TIME LEFT:  2.00D  GRAD.:    15.130 HEAT: -27.36326
 CYCLE:    32 TIME:   0.027 TIME LEFT:  2.00D  GRAD.:    16.184 HEAT: -27.37522
 CYCLE:    33 TIME:   0.012 TIME LEFT:  2.00D  GRAD.:    10.119 HEAT: -27.53154
 CYCLE:    34 TIME:   0.027 TIME LEFT:  2.00D  GRAD.:     5.100 HEAT: -27.57694
 CYCLE:    35 TIME:   0.008 TIME LEFT:  2.00D  GRAD.:     4.587 HEAT: -27.61731
 CYCLE:    36 TIME:   0.012 TIME LEFT:  2.00D  GRAD.:     6.060 HEAT: -27.68983
 CYCLE:    37 TIME:   0.008 TIME LEFT:  2.00D  GRAD.:    10.586 HEAT: -27.78879
 CYCLE:    38 TIME:   0.008 TIME LEFT:  2.00D  GRAD.:     5.466 HEAT: -27.98425
 CYCLE:    39 TIME:   0.012 TIME LEFT:  2.00D  GRAD.:    20.089 HEAT: -28.10076
 CYCLE:    40 TIME:   0.012 TIME LEFT:  2.00D  GRAD.:    16.108 HEAT: -28.31589
 CYCLE:    41 TIME:   0.031 TIME LEFT:  2.00D  GRAD.:    10.342 HEAT: -28.40598
 CYCLE:    42 TIME:   0.012 TIME LEFT:  2.00D  GRAD.:     7.518 HEAT: -28.47880
 CYCLE:    43 TIME:   0.008 TIME LEFT:  2.00D  GRAD.:     5.774 HEAT: -28.53345
 CYCLE:    44 TIME:   0.012 TIME LEFT:  2.00D  GRAD.:     6.491 HEAT: -28.59171
 CYCLE:    45 TIME:   0.008 TIME LEFT:  2.00D  GRAD.:     8.103 HEAT: -28.67080
 CYCLE:    46 TIME:   0.012 TIME LEFT:  2.00D  GRAD.:    13.446 HEAT: -28.71535
 CYCLE:    47 TIME:   0.008 TIME LEFT:  2.00D  GRAD.:     6.702 HEAT: -28.82306
 CYCLE:    48 TIME:   0.012 TIME LEFT:  2.00D  GRAD.:    14.226 HEAT: -28.82866
 CYCLE:    49 TIME:   0.008 TIME LEFT:  2.00D  GRAD.:     4.085 HEAT: -28.94816
 CYCLE:    50 TIME:   0.012 TIME LEFT:  2.00D  GRAD.:     9.394 HEAT: -28.96032
 CYCLE:    51 TIME:   0.008 TIME LEFT:  2.00D  GRAD.:     9.836 HEAT: -29.00631
 CYCLE:    52 TIME:   0.008 TIME LEFT:  2.00D  GRAD.:     9.269 HEAT: -29.02284
 CYCLE:    53 TIME:   0.012 TIME LEFT:  2.00D  GRAD.:     5.232 HEAT: -29.07813
 CYCLE:    54 TIME:   0.016 TIME LEFT:  2.00D  GRAD.:     6.694 HEAT: -29.08607
 CYCLE:    55 TIME:   0.012 TIME LEFT:  2.00D  GRAD.:     6.101 HEAT: -29.09683
 CYCLE:    56 TIME:   0.008 TIME LEFT:  2.00D  GRAD.:     5.523 HEAT: -29.11218
 CYCLE:    57 TIME:   0.008 TIME LEFT:  2.00D  GRAD.:     2.797 HEAT: -29.13108
 CYCLE:    58 TIME:   0.012 TIME LEFT:  2.00D  GRAD.:     3.174 HEAT: -29.14952
 CYCLE:    59 TIME:   0.008 TIME LEFT:  2.00D  GRAD.:     3.971 HEAT: -29.18462
 CYCLE:    60 TIME:   0.008 TIME LEFT:  2.00D  GRAD.:     3.579 HEAT: -29.24009
 CYCLE:    61 TIME:   0.012 TIME LEFT:  2.00D  GRAD.:     2.306 HEAT: -29.30531
 CYCLE:    62 TIME:   0.012 TIME LEFT:  2.00D  GRAD.:     4.523 HEAT: -29.36748
 CYCLE:    63 TIME:   0.008 TIME LEFT:  2.00D  GRAD.:     5.030 HEAT: -29.39491
 CYCLE:    64 TIME:   0.008 TIME LEFT:  2.00D  GRAD.:     4.136 HEAT: -29.42996
 CYCLE:    65 TIME:   0.012 TIME LEFT:  2.00D  GRAD.:     9.963 HEAT: -29.43188
 CYCLE:    66 TIME:   0.008 TIME LEFT:  2.00D  GRAD.:     3.847 HEAT: -29.47468
 CYCLE:    67 TIME:   0.012 TIME LEFT:  2.00D  GRAD.:     2.063 HEAT: -29.48343
 CYCLE:    68 TIME:   0.008 TIME LEFT:  2.00D  GRAD.:     1.129 HEAT: -29.49160
 CYCLE:    69 TIME:   0.012 TIME LEFT:  2.00D  GRAD.:     3.314 HEAT: -29.49108
 CYCLE:    70 TIME:   0.008 TIME LEFT:  2.00D  GRAD.:     0.967 HEAT: -29.49867

     GRADIENT =  0.96719 IS LESS THAN CUTOFF =  1.00000



 -------------------------------------------------------------------------------
 PM7 XYZ

 freesolv_186 - geometry optimisation


     GEOMETRY OPTIMISED USING EIGENVECTOR FOLLOWING (EF).     
     SCF FIELD WAS ACHIEVED                                   


                              PM7 CALCULATION
                                                       MOPAC v23.0.3 Linux
                                                       Fri Jul 25 15:22:06 2025




          FINAL HEAT OF FORMATION =        -29.49868 KCAL/MOL =    -123.42246 KJ/MOL


          COSMO AREA              =        208.05 SQUARE ANGSTROMS
          COSMO VOLUME            =        214.75 CUBIC ANGSTROMS

          GRADIENT NORM           =          0.96719          =       0.19344 PER ATOM
          IONIZATION POTENTIAL    =          9.175375 EV
          HOMO LUMO ENERGIES (EV) =         -9.175 -0.090
          NO. OF FILLED LEVELS    =         32
          MOLECULAR WEIGHT        =        163.2188         POINT GROUP:  C1  

          MOLECULAR DIMENSIONS (Angstroms)

            Atom       Atom       Distance
            H    25    H    15     9.17974
            H    19    H    17     4.65236
            H    22    O     9     3.74869


          SCF CALCULATIONS        =         89

          WALL-CLOCK TIME         =      0.902 SECONDS
          COMPUTATION TIME        =     17.911 SECONDS




   ATOM   CHEMICAL          X               Y               Z
  NUMBER   SYMBOL      (ANGSTROMS)     (ANGSTROMS)     (ANGSTROMS)

     1       C          4.08656024  *  -0.59220031  *   0.19843380  *
     2       C          2.62381796  *  -0.47248032  *  -0.06196763  *
     3       C          1.86618938  *  -1.61109367  *  -0.34873382  *
     4       C          0.50105812  *  -1.49812910  *  -0.59784156  *
     5       C         -0.10828368  *  -0.24507795  *  -0.54974893  *
     6       C          0.64495564  *   0.89852406  *  -0.28537615  *
     7       C          2.00926448  *   0.78365724  *  -0.03788918  *
     8       C         -1.56090239  *  -0.14923571  *  -0.85675137  *
     9       O         -2.01423477  *  -0.51370836  *  -1.92533485  *
    10       N         -2.39443796  *   0.44875916  *   0.07588781  *
    11       C         -2.04362755  *   0.55916073  *   1.49126907  *
    12       C         -3.83563418  *   0.46028898  *  -0.19628269  *
    13       H          4.43269790  *   0.11614676  *   0.96355302  *
    14       H          4.37315445  *  -1.59645083  *   0.54003701  *
    15       H          4.66394934  *  -0.38711532  *  -0.71715835  *
    16       H          2.34326645  *  -2.58805400  *  -0.38578665  *
    17       H         -0.09019708  *  -2.38256748  *  -0.84082456  *
    18       H          0.16489261  *   1.87752959  *  -0.27787706  *
    19       H          2.59895755  *   1.67351037  *   0.17022713  *
    20       H         -2.27187782  *   1.58088591  *   1.84772333  *
    21       H         -0.96869442  *   0.37845262  *   1.66447289  *
    22       H         -2.60635258  *  -0.16110909  *   2.11134190  *
    23       H         -4.33735349  *  -0.44620499  *   0.18059917  *
    24       H         -4.01592126  *   0.51333094  *  -1.28974003  *
    25       H         -4.29634709  *   1.34853140  *   0.26680846  *

                             CARTESIAN COORDINATES

   1    C        4.086560240    -0.592200314     0.198433804
   2    C        2.623817961    -0.472480318    -0.061967631
   3    C        1.866189384    -1.611093673    -0.348733817
   4    C        0.501058120    -1.498129099    -0.597841558
   5    C       -0.108283679    -0.245077949    -0.549748931
   6    C        0.644955643     0.898524063    -0.285376150
   7    C        2.009264482     0.783657238    -0.037889180
   8    C       -1.560902389    -0.149235708    -0.856751366
   9    O       -2.014234774    -0.513708364    -1.925334854
  10    N       -2.394437963     0.448759159     0.075887813
  11    C       -2.043627553     0.559160730     1.491269068
  12    C       -3.835634180     0.460288983    -0.196282685
  13    H        4.432697900     0.116146756     0.963553021
  14    H        4.373154451    -1.596450834     0.540037007
  15    H        4.663949335    -0.387115319    -0.717158350
  16    H        2.343266453    -2.588054004    -0.385786645
  17    H       -0.090197084    -2.382567485    -0.840824555
  18    H        0.164892609     1.877529586    -0.277877056
  19    H        2.598957549     1.673510371     0.170227132
  20    H       -2.271877820     1.580885909     1.847723327
  21    H       -0.968694417     0.378452617     1.664472886
  22    H       -2.606352582    -0.161109089     2.111341898
  23    H       -4.337353489    -0.446204989     0.180599173
  24    H       -4.015921260     0.513330942    -1.289740028
  25    H       -4.296347087     1.348531403     0.266808459


           Empirical Formula: C10 H13 N O  =    25 atoms



      MOLECULAR POINT GROUP   :   C1  


                  EIGENVALUES  
 -36.35376 -30.86590 -29.91504 -27.68074 -26.09595 -25.33373 -24.65898 -23.48944
 -21.37093 -20.82530 -19.50788 -17.76061 -16.46054 -16.20868 -15.91824 -15.65702
 -15.05894 -14.85700 -14.44502 -13.84756 -13.67799 -13.65201 -13.39639 -13.31011
 -12.92522 -12.71314 -12.40256 -11.95765 -10.27055 -10.00615  -9.62475  -9.17537
  -0.09049   0.08781   1.39225   1.97346   2.44155   3.46028   3.94362   4.18071
   4.42248   4.72642   4.81088   4.94043   5.03273   5.12809   5.19933   5.36880
   5.38145   5.48386   5.52503   5.67226   5.76105   5.79275   5.83117   6.01348
   6.11949   6.14051   6.18483   6.49345   6.58624


              NET ATOMIC CHARGES AND DIPOLE CONTRIBUTIONS

  ATOM NO.   TYPE          CHARGE      No. of ELECS.   s-Pop       p-Pop       
    1          C          -0.462033        4.4620     1.05015     3.41188
    2          C           0.074047        3.9260     1.06981     2.85614
    3          C          -0.197213        4.1972     1.08237     3.11485
    4          C          -0.089289        4.0893     1.08636     3.00293
    5          C          -0.144164        4.1442     1.07242     3.07174
    6          C          -0.104401        4.1044     1.08505     3.01935
    7          C          -0.200214        4.2002     1.08179     3.11842
    8          C           0.568747        3.4313     1.07856     2.35269
    9          O          -0.522886        6.5229     1.88195     4.64093
   10          N          -0.462752        5.4628     1.57995     3.88280
   11          C          -0.236292        4.2363     1.05809     3.17820
   12          C          -0.231144        4.2311     1.05861     3.17254
   13          H           0.157164        0.8428     0.84284
   14          H           0.157051        0.8429     0.84295
   15          H           0.166097        0.8339     0.83390
   16          H           0.157557        0.8424     0.84244
   17          H           0.164285        0.8357     0.83571
   18          H           0.160093        0.8399     0.83991
   19          H           0.155985        0.8440     0.84402
   20          H           0.147184        0.8528     0.85282
   21          H           0.156094        0.8439     0.84391
   22          H           0.137388        0.8626     0.86261
   23          H           0.132999        0.8670     0.86700
   24          H           0.175624        0.8244     0.82438
   25          H           0.140071        0.8599     0.85993
 DIPOLE           X         Y         Z       TOTAL
 POINT-CHG.     1.436     0.804     4.212     4.522
 HYBRID        -0.089    -0.195    -0.081     0.229
 SUM            1.348     0.609     4.131     4.388


          ATOMIC ORBITAL ELECTRON POPULATIONS

     Atom    s        px        py        pz   
    1  C   1.05015   1.04664   1.18776   1.17748
    2  C   1.06981   0.95433   0.97323   0.92859
    3  C   1.08237   1.00611   1.06641   1.04233
    4  C   1.08636   1.00781   1.04025   0.95487
    5  C   1.07242   0.99602   1.00575   1.06997
    6  C   1.08505   0.99944   1.05536   0.96455
    7  C   1.08179   1.01562   1.05330   1.04950
    8  C   1.07856   0.84952   0.71193   0.79124
    9  O   1.88195   1.78611   1.51844   1.33638
   10  N   1.57995   1.12989   1.62303   1.12988
   11  C   1.05809   1.15766   1.15948   0.86106
   12  C   1.05861   0.84366   1.14740   1.18147
   13  H   0.84284
   14  H   0.84295
   15  H   0.83390
   16  H   0.84244
   17  H   0.83571
   18  H   0.83991
   19  H   0.84402
   20  H   0.85282
   21  H   0.84391
   22  H   0.86261
   23  H   0.86700
   24  H   0.82438
   25  H   0.85993

 **********************
 *                    *
 * JOB ENDED NORMALLY *
 *                    *
 **********************



 TOTAL JOB TIME:             0.91 SECONDS

 == MOPAC DONE ==
