 *******************************************************************************
 **                                                                           **
 **                              MOPAC v23.0.3                                **
 **                                                                           **
 *******************************************************************************
 **          Digital Object Identifier (DOI): 10.5281/zenodo.6511958          **
 **    Visit the DOI location for information on how to cite this program.    **
 *******************************************************************************

                              PM7 CALCULATION RESULTS

 *******************************************************************************
 *  CALCULATION DONE:                                Fri Jul 25 15:23:34 2025  *
 *  PM7        - The PM7 Hamiltonian to be used
 *  XYZ        - CARTESIAN COORDINATE SYSTEM TO BE USED
 *  T=         - A TIME OF 172800.0 SECONDS REQUESTED
 *  DUMP=N     - RESTART FILE WRITTEN EVERY 7200.0 SECONDS REQUESTED
 *******************************************************************************
PM7 XYZ

 freesolv_335 - geometry optimisation
   ATOM   CHEMICAL          X               Y               Z
  NUMBER   SYMBOL      (ANGSTROMS)     (ANGSTROMS)     (ANGSTROMS)

     1       C         -0.85727500  *   1.01633400  *   0.93184600  *
     2       C         -0.75025700  *  -0.06754000  *  -0.16049100  *
     3       C         -1.22245400  *  -1.41463000  *   0.41496500  *
     4       C         -1.64965000  *   0.33126800  *  -1.34721200  *
     5       C          0.68404900  *  -0.20983200  *  -0.63281200  *
     6       O          0.93906700  *  -0.89895900  *  -1.65993500  *
     7       O          1.72888100  *   0.37927900  *   0.08951000  *
     8       C          3.09228400  *   0.26088000  *  -0.29790900  *
     9       H         -1.91111900  *   1.13529700  *   1.26496600  *
    10       H         -0.50162700  *   1.99640600  *   0.54595600  *
    11       H         -0.24576700  *   0.74418900  *   1.81944600  *
    12       H         -2.27138700  *  -1.34097900  *   0.77544900  *
    13       H         -1.17653500  *  -2.21118400  *  -0.35914200  *
    14       H         -0.57954600  *  -1.72086000  *   1.26872200  *
    15       H         -2.70273600  *   0.46013500  *  -1.01543100  *
    16       H         -1.30347000  *   1.28897100  *  -1.79313300  *
    17       H         -1.63287700  *  -0.44935900  *  -2.13835800  *
    18       H          3.72612000  *   0.81223300  *   0.42645300  *
    19       H          3.23916800  *   0.69598400  *  -1.30912500  *
    20       H          3.39513100  *  -0.80763300  *  -0.30092600  *



          CARTESIAN COORDINATES 

    NO.       ATOM           X           Y           Z

     1         C         -0.8573      1.0163      0.9318
     2         C         -0.7503     -0.0675     -0.1605
     3         C         -1.2225     -1.4146      0.4150
     4         C         -1.6497      0.3313     -1.3472
     5         C          0.6840     -0.2098     -0.6328
     6         O          0.9391     -0.8990     -1.6599
     7         O          1.7289      0.3793      0.0895
     8         C          3.0923      0.2609     -0.2979
     9         H         -1.9111      1.1353      1.2650
    10         H         -0.5016      1.9964      0.5460
    11         H         -0.2458      0.7442      1.8194
    12         H         -2.2714     -1.3410      0.7754
    13         H         -1.1765     -2.2112     -0.3591
    14         H         -0.5795     -1.7209      1.2687
    15         H         -2.7027      0.4601     -1.0154
    16         H         -1.3035      1.2890     -1.7931
    17         H         -1.6329     -0.4494     -2.1384
    18         H          3.7261      0.8122      0.4265
    19         H          3.2392      0.6960     -1.3091
    20         H          3.3951     -0.8076     -0.3009

 General Reference for PM7:
 "Optimization of Parameters for Semiempirical Methods VI: More Modifications to the 
 NDDO Approximations and Re-optimization of Parameters", J. J. P. Stewart, J. Mol. Mod., 1:32, 19 (2013)
 https://link.springer.com/article/10.1007/s00894-012-1667-x

           Empirical Formula: C6 H12 O2  =    20 atoms



      MOLECULAR POINT GROUP   :   C1  


      RHF CALCULATION, NO. OF DOUBLY OCCUPIED LEVELS = 24


          Geometry optimization using EF

          DIAGONAL MATRIX USED AS START HESSIAN

 CYCLE:     1 TIME:   0.016 TIME LEFT:  2.00D  GRAD.:   163.356 HEAT: -101.7247
 CYCLE:     2 TIME:   0.016 TIME LEFT:  2.00D  GRAD.:   211.744 HEAT: -102.5510
 CYCLE:     3 TIME:   0.012 TIME LEFT:  2.00D  GRAD.:   100.338 HEAT: -106.5074
 CYCLE:     4 TIME:   0.008 TIME LEFT:  2.00D  GRAD.:   105.791 HEAT: -107.2813
 CYCLE:     5 TIME:   0.008 TIME LEFT:  2.00D  GRAD.:    44.901 HEAT: -110.0937
 CYCLE:     6 TIME:   0.012 TIME LEFT:  2.00D  GRAD.:    59.973 HEAT: -110.2822
 CYCLE:     7 TIME:   0.008 TIME LEFT:  2.00D  GRAD.:    32.413 HEAT: -111.2242
 CYCLE:     8 TIME:   0.012 TIME LEFT:  2.00D  GRAD.:    38.938 HEAT: -111.3960
 CYCLE:     9 TIME:   0.008 TIME LEFT:  2.00D  GRAD.:    28.293 HEAT: -111.5799
 CYCLE:    10 TIME:   0.004 TIME LEFT:  2.00D  GRAD.:    29.337 HEAT: -111.8451
 CYCLE:    11 TIME:   0.008 TIME LEFT:  2.00D  GRAD.:    25.833 HEAT: -111.8697
 CYCLE:    12 TIME:   0.008 TIME LEFT:  2.00D  GRAD.:    35.958 HEAT: -111.8955
 CYCLE:    13 TIME:   0.008 TIME LEFT:  2.00D  GRAD.:    10.895 HEAT: -112.1915
 CYCLE:    14 TIME:   0.020 TIME LEFT:  2.00D  GRAD.:    10.168 HEAT: -112.2295
 CYCLE:    15 TIME:   0.016 TIME LEFT:  2.00D  GRAD.:     5.516 HEAT: -112.2703
 CYCLE:    16 TIME:   0.020 TIME LEFT:  2.00D  GRAD.:     7.503 HEAT: -112.2828
 CYCLE:    17 TIME:   0.008 TIME LEFT:  2.00D  GRAD.:     3.414 HEAT: -112.3091
 CYCLE:    18 TIME:   0.012 TIME LEFT:  2.00D  GRAD.:     8.298 HEAT: -112.3178
 CYCLE:    19 TIME:   0.012 TIME LEFT:  2.00D  GRAD.:     5.476 HEAT: -112.3464
 CYCLE:    20 TIME:   0.031 TIME LEFT:  2.00D  GRAD.:     4.249 HEAT: -112.3540
 CYCLE:    21 TIME:   0.012 TIME LEFT:  2.00D  GRAD.:     3.036 HEAT: -112.3601
 CYCLE:    22 TIME:   0.023 TIME LEFT:  2.00D  GRAD.:     4.148 HEAT: -112.3621
 CYCLE:    23 TIME:   0.016 TIME LEFT:  2.00D  GRAD.:     1.599 HEAT: -112.3690
 CYCLE:    24 TIME:   0.012 TIME LEFT:  2.00D  GRAD.:     6.160 HEAT: -112.3614
 CYCLE:    25 TIME:   0.012 TIME LEFT:  2.00D  GRAD.:     2.387 HEAT: -112.3731
 CYCLE:    26 TIME:   0.012 TIME LEFT:  2.00D  GRAD.:     4.935 HEAT: -112.3679
 CYCLE:    27 TIME:   0.012 TIME LEFT:  2.00D  GRAD.:     3.251 HEAT: -112.3752
 CYCLE:    28 TIME:   0.027 TIME LEFT:  2.00D  GRAD.:     1.759 HEAT: -112.3791
 CYCLE:    29 TIME:   0.012 TIME LEFT:  2.00D  GRAD.:     1.415 HEAT: -112.3813
 CYCLE:    30 TIME:   0.012 TIME LEFT:  2.00D  GRAD.:     4.045 HEAT: -112.3809
 CYCLE:    31 TIME:   0.012 TIME LEFT:  2.00D  GRAD.:     2.293 HEAT: -112.3863
 CYCLE:    32 TIME:   0.012 TIME LEFT:  2.00D  GRAD.:     3.815 HEAT: -112.3831
 CYCLE:    33 TIME:   0.012 TIME LEFT:  2.00D  GRAD.:     2.234 HEAT: -112.3877
 CYCLE:    34 TIME:   0.012 TIME LEFT:  2.00D  GRAD.:     4.085 HEAT: -112.3830
 CYCLE:    35 TIME:   0.012 TIME LEFT:  2.00D  GRAD.:     1.619 HEAT: -112.3892
 CYCLE:    36 TIME:   0.012 TIME LEFT:  2.00D  GRAD.:     3.599 HEAT: -112.3851
 CYCLE:    37 TIME:   0.008 TIME LEFT:  2.00D  GRAD.:     1.626 HEAT: -112.3894
 CYCLE:    38 TIME:   0.012 TIME LEFT:  2.00D  GRAD.:     3.362 HEAT: -112.3861
 CYCLE:    39 TIME:   0.012 TIME LEFT:  2.00D  GRAD.:     2.091 HEAT: -112.3891
 CYCLE:    40 TIME:   0.012 TIME LEFT:  2.00D  GRAD.:     4.262 HEAT: -112.3828
 CYCLE:    41 TIME:   0.012 TIME LEFT:  2.00D  GRAD.:     0.208 HEAT: -112.3910

     GRADIENT =  0.20766 IS LESS THAN CUTOFF =  1.00000



 -------------------------------------------------------------------------------
 PM7 XYZ

 freesolv_335 - geometry optimisation


     GEOMETRY OPTIMISED USING EIGENVECTOR FOLLOWING (EF).     
     SCF FIELD WAS ACHIEVED                                   


                              PM7 CALCULATION
                                                       MOPAC v23.0.3 Linux
                                                       Fri Jul 25 15:23:34 2025




          FINAL HEAT OF FORMATION =       -112.39102 KCAL/MOL =    -470.24403 KJ/MOL


          COSMO AREA              =        162.51 SQUARE ANGSTROMS
          COSMO VOLUME            =        160.95 CUBIC ANGSTROMS

          GRADIENT NORM           =          0.20766          =       0.04643 PER ATOM
          IONIZATION POTENTIAL    =         10.486263 EV
          HOMO LUMO ENERGIES (EV) =        -10.486  1.218
          NO. OF FILLED LEVELS    =         24
          MOLECULAR WEIGHT        =        116.1596         POINT GROUP:  C1  

          MOLECULAR DIMENSIONS (Angstroms)

            Atom       Atom       Distance
            H    18    H    15     6.34287
            H    13    H    10     4.18745
            H    11    H    19     3.68687


          SCF CALCULATIONS        =         54

          WALL-CLOCK TIME         =      0.539 SECONDS
          COMPUTATION TIME        =      2.625 SECONDS




   ATOM   CHEMICAL          X               Y               Z
  NUMBER   SYMBOL      (ANGSTROMS)     (ANGSTROMS)     (ANGSTROMS)

     1       C         -0.77660736  *   1.02327245  *   0.92922841  *
     2       C         -0.72943181  *  -0.05704226  *  -0.15196159  *
     3       C         -1.17341994  *  -1.40902033  *   0.41956527  *
     4       C         -1.60619205  *   0.34284060  *  -1.34372001  *
     5       C          0.68279461  *  -0.25560152  *  -0.68358142  *
     6       O          1.00665795  *  -0.89041927  *  -1.65377678  *
     7       O          1.59456465  *   0.37818679  *   0.09744974  *
     8       C          2.95589454  *   0.24675199  *  -0.29815656  *
     9       H         -1.79882905  *   1.17605181  *   1.29277802  *
    10       H         -0.40787598  *   1.98615749  *   0.55463611  *
    11       H         -0.15272583  *   0.75888462  *   1.79320977  *
    12       H         -2.21055525  *  -1.36518997  *   0.77169798  *
    13       H         -1.11558874  *  -2.20352062  *  -0.33685313  *
    14       H         -0.55041691  *  -1.71444963  *   1.26845109  *
    15       H         -2.65590750  *   0.44317004  *  -1.04676089  *
    16       H         -1.29123734  *   1.29984447  *  -1.77576532  *
    17       H         -1.55710446  *  -0.40754076  *  -2.14571719  *
    18       H          3.49201725  *   0.81794686  *   0.46801912  *
    19       H          3.10258673  *   0.67689270  *  -1.29452319  *
    20       H          3.25234707  *  -0.80745424  *  -0.29269327  *

                             CARTESIAN COORDINATES

   1    C       -0.776607360     1.023272452     0.929228412
   2    C       -0.729431811    -0.057042257    -0.151961588
   3    C       -1.173419944    -1.409020328     0.419565267
   4    C       -1.606192054     0.342840598    -1.343720010
   5    C        0.682794611    -0.255601519    -0.683581417
   6    O        1.006657954    -0.890419267    -1.653776779
   7    O        1.594564645     0.378186794     0.097449744
   8    C        2.955894542     0.246751990    -0.298156556
   9    H       -1.798829051     1.176051812     1.292778023
  10    H       -0.407875982     1.986157491     0.554636113
  11    H       -0.152725833     0.758884624     1.793209766
  12    H       -2.210555254    -1.365189966     0.771697976
  13    H       -1.115588737    -2.203520616    -0.336853134
  14    H       -0.550416915    -1.714449630     1.268451095
  15    H       -2.655907504     0.443170039    -1.046760889
  16    H       -1.291237337     1.299844471    -1.775765315
  17    H       -1.557104463    -0.407540762    -2.145717190
  18    H        3.492017254     0.817946861     0.468019117
  19    H        3.102586728     0.676892704    -1.294523193
  20    H        3.252347068    -0.807454243    -0.292693271


           Empirical Formula: C6 H12 O2  =    20 atoms



      MOLECULAR POINT GROUP   :   C1  


                  EIGENVALUES  
 -31.36872 -29.85812 -29.57324 -25.01646 -24.32167 -24.07103 -21.90494 -18.73922
 -16.94387 -16.36255 -16.28529 -15.09710 -15.04560 -14.53553 -13.90306 -13.46770
 -13.18782 -13.01231 -12.90926 -12.42972 -12.08122 -12.04387 -11.07931 -10.48626
   1.21838   1.73034   3.28516   3.74616   3.75365   4.19035   4.58004   5.37170
   5.51743   5.56546   5.61646   5.66506   5.69756   5.70476   5.72669   5.77388
   6.14909   6.70329   6.84363   6.91521


              NET ATOMIC CHARGES AND DIPOLE CONTRIBUTIONS

  ATOM NO.   TYPE          CHARGE      No. of ELECS.   s-Pop       p-Pop       
    1          C          -0.450953        4.4510     1.05585     3.39510
    2          C           0.052472        3.9475     1.05921     2.88832
    3          C          -0.456072        4.4561     1.05787     3.39820
    4          C          -0.454996        4.4550     1.05776     3.39724
    5          C           0.572577        3.4274     1.14379     2.28363
    6          O          -0.514236        6.5142     1.87585     4.63839
    7          O          -0.408116        6.4081     1.86654     4.54157
    8          C          -0.175185        4.1752     1.08536     3.08982
    9          H           0.150583        0.8494     0.84942
   10          H           0.155568        0.8444     0.84443
   11          H           0.159032        0.8410     0.84097
   12          H           0.156430        0.8436     0.84357
   13          H           0.162462        0.8375     0.83754
   14          H           0.152779        0.8472     0.84722
   15          H           0.154244        0.8458     0.84576
   16          H           0.152031        0.8480     0.84797
   17          H           0.166155        0.8338     0.83384
   18          H           0.144727        0.8553     0.85527
   19          H           0.140205        0.8598     0.85979
   20          H           0.140292        0.8597     0.85971
 DIPOLE           X         Y         Z       TOTAL
 POINT-CHG.    -0.745     0.998     1.670     2.083
 HYBRID         0.139    -0.049    -0.092     0.173
 SUM           -0.607     0.948     1.578     1.938


          ATOMIC ORBITAL ELECTRON POPULATIONS

     Atom    s        px        py        pz   
    1  C   1.05585   1.17885   1.10693   1.10932
    2  C   1.05921   0.93438   0.97851   0.97542
    3  C   1.05787   1.17238   1.06103   1.16479
    4  C   1.05776   1.12964   1.17852   1.08907
    5  C   1.14379   0.84758   0.69178   0.74427
    6  O   1.87585   1.81567   1.46055   1.36216
    7  O   1.86654   1.25418   1.71153   1.57586
    8  C   1.08536   0.80311   1.15315   1.13356
    9  H   0.84942
   10  H   0.84443
   11  H   0.84097
   12  H   0.84357
   13  H   0.83754
   14  H   0.84722
   15  H   0.84576
   16  H   0.84797
   17  H   0.83384
   18  H   0.85527
   19  H   0.85979
   20  H   0.85971

 **********************
 *                    *
 * JOB ENDED NORMALLY *
 *                    *
 **********************



 TOTAL JOB TIME:             0.54 SECONDS

 == MOPAC DONE ==
