 *******************************************************************************
 **                                                                           **
 **                              MOPAC v23.0.3                                **
 **                                                                           **
 *******************************************************************************
 **          Digital Object Identifier (DOI): 10.5281/zenodo.6511958          **
 **    Visit the DOI location for information on how to cite this program.    **
 *******************************************************************************

                              PM7 CALCULATION RESULTS

 *******************************************************************************
 *  CALCULATION DONE:                                Fri Jul 25 15:22:18 2025  *
 *  PM7        - The PM7 Hamiltonian to be used
 *  XYZ        - CARTESIAN COORDINATE SYSTEM TO BE USED
 *  T=         - A TIME OF 172800.0 SECONDS REQUESTED
 *  DUMP=N     - RESTART FILE WRITTEN EVERY 7200.0 SECONDS REQUESTED
 *******************************************************************************
PM7 XYZ

 freesolv_152 - geometry optimisation
   ATOM   CHEMICAL          X               Y               Z
  NUMBER   SYMBOL      (ANGSTROMS)     (ANGSTROMS)     (ANGSTROMS)

     1       C         -3.24475600  *  -0.60105300  *   1.68564000  *
     2       C         -3.32801000  *   0.87977300  *   1.32193500  *
     3       C         -2.43291300  *   1.25901700  *   0.13025500  *
     4       C         -0.92359000  *   1.14314400  *   0.43047000  *
     5       C         -0.30916000  *  -0.13522100  *  -0.16470000  *
     6       C          1.16766400  *  -0.30720900  *   0.24182400  *
     7       C          1.74557000  *  -1.62848900  *  -0.24880300  *
     8       C          3.24913400  *  -1.40630400  *  -0.32852100  *
     9       C          3.46280000  *   0.10109200  *  -0.45973100  *
    10       C          2.08965100  *   0.75594000  *  -0.34978700  *
    11       H         -4.01625500  *  -0.83751500  *   2.44837500  *
    12       H         -2.25058900  *  -0.83980300  *   2.11737500  *
    13       H         -3.42708400  *  -1.23301200  *   0.79056900  *
    14       H         -4.38156100  *   1.11520500  *   1.05667400  *
    15       H         -3.06150600  *   1.49505100  *   2.20871300  *
    16       H         -2.71469000  *   0.65780600  *  -0.76234700  *
    17       H         -2.65522700  *   2.31877500  *  -0.12333700  *
    18       H         -0.40918400  *   2.02026800  *  -0.01924600  *
    19       H         -0.73753100  *   1.18315500  *   1.52622600  *
    20       H         -0.87637900  *  -1.02047100  *   0.19124900  *
    21       H         -0.39682400  *  -0.10513300  *  -1.27347600  *
    22       H          1.25150300  *  -0.28104300  *   1.35270100  *
    23       H          1.35923400  *  -1.87100000  *  -1.26440600  *
    24       H          1.49544700  *  -2.46098800  *   0.44445600  *
    25       H          3.73175600  *  -1.77518000  *   0.60343900  *
    26       H          3.68245000  *  -1.94986400  *  -1.19629800  *
    27       H          3.93377200  *   0.34861300  *  -1.43622800  *
    28       H          4.12478300  *   0.46321600  *   0.35747400  *
    29       H          1.74441800  *   1.05255400  *  -1.36548100  *
    30       H          2.12707800  *   1.65867600  *   0.29813600  *



          CARTESIAN COORDINATES 

    NO.       ATOM           X           Y           Z

     1         C         -3.2448     -0.6011      1.6856
     2         C         -3.3280      0.8798      1.3219
     3         C         -2.4329      1.2590      0.1303
     4         C         -0.9236      1.1431      0.4305
     5         C         -0.3092     -0.1352     -0.1647
     6         C          1.1677     -0.3072      0.2418
     7         C          1.7456     -1.6285     -0.2488
     8         C          3.2491     -1.4063     -0.3285
     9         C          3.4628      0.1011     -0.4597
    10         C          2.0897      0.7559     -0.3498
    11         H         -4.0163     -0.8375      2.4484
    12         H         -2.2506     -0.8398      2.1174
    13         H         -3.4271     -1.2330      0.7906
    14         H         -4.3816      1.1152      1.0567
    15         H         -3.0615      1.4951      2.2087
    16         H         -2.7147      0.6578     -0.7623
    17         H         -2.6552      2.3188     -0.1233
    18         H         -0.4092      2.0203     -0.0192
    19         H         -0.7375      1.1832      1.5262
    20         H         -0.8764     -1.0205      0.1912
    21         H         -0.3968     -0.1051     -1.2735
    22         H          1.2515     -0.2810      1.3527
    23         H          1.3592     -1.8710     -1.2644
    24         H          1.4954     -2.4610      0.4445
    25         H          3.7318     -1.7752      0.6034
    26         H          3.6825     -1.9499     -1.1963
    27         H          3.9338      0.3486     -1.4362
    28         H          4.1248      0.4632      0.3575
    29         H          1.7444      1.0526     -1.3655
    30         H          2.1271      1.6587      0.2981

 General Reference for PM7:
 "Optimization of Parameters for Semiempirical Methods VI: More Modifications to the 
 NDDO Approximations and Re-optimization of Parameters", J. J. P. Stewart, J. Mol. Mod., 1:32, 19 (2013)
 https://link.springer.com/article/10.1007/s00894-012-1667-x

           Empirical Formula: C10 H20  =    30 atoms



      MOLECULAR POINT GROUP   :   C1  


      RHF CALCULATION, NO. OF DOUBLY OCCUPIED LEVELS = 30


          Geometry optimization using EF

          DIAGONAL MATRIX USED AS START HESSIAN

 CYCLE:     1 TIME:   0.020 TIME LEFT:  2.00D  GRAD.:    51.479 HEAT: -42.61390
 CYCLE:     2 TIME:   0.047 TIME LEFT:  2.00D  GRAD.:    27.606 HEAT: -43.69046
 CYCLE:     3 TIME:   0.012 TIME LEFT:  2.00D  GRAD.:    14.123 HEAT: -44.35930
 CYCLE:     4 TIME:   0.016 TIME LEFT:  2.00D  GRAD.:    24.672 HEAT: -44.50507
 CYCLE:     5 TIME:   0.020 TIME LEFT:  2.00D  GRAD.:    14.544 HEAT: -44.68699
 CYCLE:     6 TIME:   0.023 TIME LEFT:  2.00D  GRAD.:     7.691 HEAT: -44.76458
 CYCLE:     7 TIME:   0.020 TIME LEFT:  2.00D  GRAD.:     4.811 HEAT: -44.78993
 CYCLE:     8 TIME:   0.012 TIME LEFT:  2.00D  GRAD.:     6.733 HEAT: -44.79285
 CYCLE:     9 TIME:   0.012 TIME LEFT:  2.00D  GRAD.:     4.359 HEAT: -44.81545
 CYCLE:    10 TIME:   0.023 TIME LEFT:  2.00D  GRAD.:     4.153 HEAT: -44.82414
 CYCLE:    11 TIME:   0.008 TIME LEFT:  2.00D  GRAD.:     3.555 HEAT: -44.83347
 CYCLE:    12 TIME:   0.012 TIME LEFT:  2.00D  GRAD.:     3.294 HEAT: -44.84548
 CYCLE:    13 TIME:   0.012 TIME LEFT:  2.00D  GRAD.:     4.793 HEAT: -44.85498
 CYCLE:    14 TIME:   0.012 TIME LEFT:  2.00D  GRAD.:     4.726 HEAT: -44.86850
 CYCLE:    15 TIME:   0.012 TIME LEFT:  2.00D  GRAD.:     5.850 HEAT: -44.87360
 CYCLE:    16 TIME:   0.023 TIME LEFT:  2.00D  GRAD.:     5.968 HEAT: -44.87440
 CYCLE:    17 TIME:   0.012 TIME LEFT:  2.00D  GRAD.:     5.329 HEAT: -44.87873
 CYCLE:    18 TIME:   0.020 TIME LEFT:  2.00D  GRAD.:     2.268 HEAT: -44.89039
 CYCLE:    19 TIME:   0.012 TIME LEFT:  2.00D  GRAD.:     4.114 HEAT: -44.88506
 CYCLE:    20 TIME:   0.012 TIME LEFT:  2.00D  GRAD.:     3.169 HEAT: -44.89085
 CYCLE:    21 TIME:   0.020 TIME LEFT:  2.00D  GRAD.:     2.912 HEAT: -44.89137
 CYCLE:    22 TIME:   0.012 TIME LEFT:  2.00D  GRAD.:     2.625 HEAT: -44.89320
 CYCLE:    23 TIME:   0.012 TIME LEFT:  2.00D  GRAD.:     3.476 HEAT: -44.89080
 CYCLE:    24 TIME:   0.012 TIME LEFT:  2.00D  GRAD.:     2.448 HEAT: -44.89497
 CYCLE:    25 TIME:   0.023 TIME LEFT:  2.00D  GRAD.:     2.134 HEAT: -44.89589
 CYCLE:    26 TIME:   0.012 TIME LEFT:  2.00D  GRAD.:     1.744 HEAT: -44.89721
 CYCLE:    27 TIME:   0.012 TIME LEFT:  2.00D  GRAD.:     3.308 HEAT: -44.89494
 CYCLE:    28 TIME:   0.012 TIME LEFT:  2.00D  GRAD.:     1.881 HEAT: -44.89847
 CYCLE:    29 TIME:   0.012 TIME LEFT:  2.00D  GRAD.:     3.878 HEAT: -44.89444
 CYCLE:    30 TIME:   0.008 TIME LEFT:  2.00D  GRAD.:     1.953 HEAT: -44.89990
 CYCLE:    31 TIME:   0.012 TIME LEFT:  2.00D  GRAD.:     4.827 HEAT: -44.89263
 CYCLE:    32 TIME:   0.012 TIME LEFT:  2.00D  GRAD.:     2.319 HEAT: -44.90096
 CYCLE:    33 TIME:   0.012 TIME LEFT:  2.00D  GRAD.:     4.439 HEAT: -44.89368
 CYCLE:    34 TIME:   0.012 TIME LEFT:  2.00D  GRAD.:     2.713 HEAT: -44.90219
 CYCLE:    35 TIME:   0.023 TIME LEFT:  2.00D  GRAD.:     3.466 HEAT: -44.90010
 CYCLE:    36 TIME:   0.012 TIME LEFT:  2.00D  GRAD.:     2.241 HEAT: -44.90453
 CYCLE:    37 TIME:   0.012 TIME LEFT:  2.00D  GRAD.:     4.088 HEAT: -44.89989
 CYCLE:    38 TIME:   0.012 TIME LEFT:  2.00D  GRAD.:     3.164 HEAT: -44.90474
 CYCLE:    39 TIME:   0.020 TIME LEFT:  2.00D  GRAD.:     1.889 HEAT: -44.90728
 CYCLE:    40 TIME:   0.012 TIME LEFT:  2.00D  GRAD.:     1.421 HEAT: -44.90970
 CYCLE:    41 TIME:   0.012 TIME LEFT:  2.00D  GRAD.:     3.955 HEAT: -44.90567
 CYCLE:    42 TIME:   0.012 TIME LEFT:  2.00D  GRAD.:     1.955 HEAT: -44.91138
 CYCLE:    43 TIME:   0.012 TIME LEFT:  2.00D  GRAD.:     4.413 HEAT: -44.90362
 CYCLE:    44 TIME:   0.012 TIME LEFT:  2.00D  GRAD.:     1.658 HEAT: -44.91356
 CYCLE:    45 TIME:   0.023 TIME LEFT:  2.00D  GRAD.:     4.248 HEAT: -44.90669
 CYCLE:    46 TIME:   0.012 TIME LEFT:  2.00D  GRAD.:     1.498 HEAT: -44.91563
 CYCLE:    47 TIME:   0.020 TIME LEFT:  2.00D  GRAD.:     4.502 HEAT: -44.90811
 CYCLE:    48 TIME:   0.012 TIME LEFT:  2.00D  GRAD.:     1.069 HEAT: -44.91713
 CYCLE:    49 TIME:   0.012 TIME LEFT:  2.00D  GRAD.:     4.095 HEAT: -44.91140
 CYCLE:    50 TIME:   0.012 TIME LEFT:  2.00D  GRAD.:     0.844 HEAT: -44.91854

     GRADIENT =  0.84414 IS LESS THAN CUTOFF =  1.00000



 -------------------------------------------------------------------------------
 PM7 XYZ

 freesolv_152 - geometry optimisation


     GEOMETRY OPTIMISED USING EIGENVECTOR FOLLOWING (EF).     
     SCF FIELD WAS ACHIEVED                                   


                              PM7 CALCULATION
                                                       MOPAC v23.0.3 Linux
                                                       Fri Jul 25 15:22:19 2025




          FINAL HEAT OF FORMATION =        -44.91854 KCAL/MOL =    -187.93915 KJ/MOL


          COSMO AREA              =        210.43 SQUARE ANGSTROMS
          COSMO VOLUME            =        219.44 CUBIC ANGSTROMS

          GRADIENT NORM           =          0.84414          =       0.15412 PER ATOM
          IONIZATION POTENTIAL    =         10.812523 EV
          HOMO LUMO ENERGIES (EV) =        -10.813  3.753
          NO. OF FILLED LEVELS    =         30
          MOLECULAR WEIGHT        =        140.2680         POINT GROUP:  C1  

          MOLECULAR DIMENSIONS (Angstroms)

            Atom       Atom       Distance
            H    26    H    14     8.91690
            H    30    H    13     4.74545
            H    16    H    11     3.14329


          SCF CALCULATIONS        =         65

          WALL-CLOCK TIME         =      0.766 SECONDS
          COMPUTATION TIME        =     15.289 SECONDS




   ATOM   CHEMICAL          X               Y               Z
  NUMBER   SYMBOL      (ANGSTROMS)     (ANGSTROMS)     (ANGSTROMS)

     1       C         -3.22558336  *  -0.60005192  *   1.66649473  *
     2       C         -3.31661926  *   0.88500795  *   1.31558944  *
     3       C         -2.42447960  *   1.26034747  *   0.12298571  *
     4       C         -0.92450843  *   1.14200344  *   0.43941664  *
     5       C         -0.31458077  *  -0.13166176  *  -0.16136983  *
     6       C          1.14796668  *  -0.30111016  *   0.26073993  *
     7       C          1.73189783  *  -1.64216559  *  -0.23070076  *
     8       C          3.25017053  *  -1.41376987  *  -0.33117326  *
     9       C          3.46298897  *   0.10844066  *  -0.46463765  *
    10       C          2.07766701  *   0.76949604  *  -0.34705107  *
    11       H         -3.92719797  *  -0.86362983  *   2.46475046  *
    12       H         -2.21891628  *  -0.86653622  *   2.01028884  *
    13       H         -3.45579405  *  -1.23034792  *   0.80064192  *
    14       H         -4.36692225  *   1.14674048  *   1.08270206  *
    15       H         -3.04415743  *   1.49732721  *   2.19669253  *
    16       H         -2.68520345  *   0.63401484  *  -0.74966626  *
    17       H         -2.65375564  *   2.29895331  *  -0.18384829  *
    18       H         -0.38840085  *   2.02683964  *   0.04769190  *
    19       H         -0.76174683  *   1.15881370  *   1.53300321  *
    20       H         -0.89820221  *  -1.01528515  *   0.16095444  *
    21       H         -0.39505920  *  -0.10559456  *  -1.26411085  *
    22       H          1.21792089  *  -0.25868853  *   1.37117296  *
    23       H          1.31537710  *  -1.91160213  *  -1.21561642  *
    24       H          1.48348400  *  -2.46808893  *   0.45064319  *
    25       H          3.76224189  *  -1.79942204  *   0.56522646  *
    26       H          3.67857434  *  -1.95538767  *  -1.18841328  *
    27       H          3.93913091  *   0.36058369  *  -1.42459978  *
    28       H          4.14108972  *   0.47614131  *   0.32197629  *
    29       H          1.71225065  *   1.08344990  *  -1.33930453  *
    30       H          2.10849443  *   1.67632634  *   0.27395280  *

                             CARTESIAN COORDINATES

   1    C       -3.225583365    -0.600051917     1.666494729
   2    C       -3.316619259     0.885007954     1.315589444
   3    C       -2.424479605     1.260347472     0.122985713
   4    C       -0.924508426     1.142003444     0.439416638
   5    C       -0.314580768    -0.131661759    -0.161369831
   6    C        1.147966679    -0.301110163     0.260739935
   7    C        1.731897826    -1.642165591    -0.230700759
   8    C        3.250170529    -1.413769873    -0.331173257
   9    C        3.462988967     0.108440658    -0.464637654
  10    C        2.077667011     0.769496043    -0.347051073
  11    H       -3.927197968    -0.863629833     2.464750465
  12    H       -2.218916277    -0.866536220     2.010288836
  13    H       -3.455794049    -1.230347917     0.800641920
  14    H       -4.366922255     1.146740476     1.082702055
  15    H       -3.044157427     1.497327213     2.196692532
  16    H       -2.685203453     0.634014838    -0.749666260
  17    H       -2.653755637     2.298953306    -0.183848293
  18    H       -0.388400847     2.026839639     0.047691904
  19    H       -0.761746834     1.158813699     1.533003206
  20    H       -0.898202209    -1.015285149     0.160954438
  21    H       -0.395059200    -0.105594564    -1.264110847
  22    H        1.217920895    -0.258688531     1.371172955
  23    H        1.315377103    -1.911602132    -1.215616424
  24    H        1.483483996    -2.468088933     0.450643189
  25    H        3.762241893    -1.799422045     0.565226462
  26    H        3.678574345    -1.955387671    -1.188413276
  27    H        3.939130914     0.360583691    -1.424599779
  28    H        4.141089718     0.476141313     0.321976287
  29    H        1.712250648     1.083449896    -1.339304533
  30    H        2.108494426     1.676326342     0.273952796


           Empirical Formula: C10 H20  =    30 atoms



      MOLECULAR POINT GROUP   :   C1  


                  EIGENVALUES  
 -30.39658 -28.94132 -26.62670 -24.77486 -24.44080 -22.56483 -20.51838 -19.67852
 -18.93827 -18.83695 -16.65216 -16.04728 -15.77939 -15.31841 -14.37083 -14.19893
 -14.05135 -13.33061 -13.22372 -12.71054 -12.23927 -12.01254 -11.95100 -11.84324
 -11.52622 -11.33811 -11.03337 -10.98476 -10.90523 -10.81252   3.75291   3.85795
   4.20706   4.34499   4.35895   4.62425   4.71893   4.92134   5.17716   5.28542
   5.50635   5.66739   5.73491   5.83172   5.93218   6.01994   6.02756   6.18471
   6.28191   6.41540   6.53452   6.56322   6.66061   6.74811   6.75925   6.78076
   6.80259   6.85835   6.90409   7.18904


              NET ATOMIC CHARGES AND DIPOLE CONTRIBUTIONS

  ATOM NO.   TYPE          CHARGE      No. of ELECS.   s-Pop       p-Pop       
    1          C          -0.435815        4.4358     1.05192     3.38390
    2          C          -0.248230        4.2482     1.05569     3.19254
    3          C          -0.269362        4.2694     1.05982     3.20955
    4          C          -0.265196        4.2652     1.05943     3.20577
    5          C          -0.294073        4.2941     1.06381     3.23026
    6          C          -0.094847        4.0948     1.06641     3.02844
    7          C          -0.279056        4.2791     1.06515     3.21391
    8          C          -0.262265        4.2623     1.06142     3.20084
    9          C          -0.263798        4.2638     1.06163     3.20217
   10          C          -0.275892        4.2759     1.06487     3.21103
   11          H           0.136041        0.8640     0.86396
   12          H           0.146584        0.8534     0.85342
   13          H           0.141167        0.8588     0.85883
   14          H           0.127962        0.8720     0.87204
   15          H           0.132487        0.8675     0.86751
   16          H           0.138471        0.8615     0.86153
   17          H           0.129314        0.8707     0.87069
   18          H           0.132154        0.8678     0.86785
   19          H           0.139723        0.8603     0.86028
   20          H           0.141222        0.8588     0.85878
   21          H           0.138174        0.8618     0.86183
   22          H           0.131108        0.8689     0.86889
   23          H           0.136092        0.8639     0.86391
   24          H           0.130667        0.8693     0.86933
   25          H           0.130670        0.8693     0.86933
   26          H           0.129705        0.8703     0.87029
   27          H           0.130008        0.8700     0.86999
   28          H           0.130227        0.8698     0.86977
   29          H           0.136625        0.8634     0.86338
   30          H           0.130134        0.8699     0.86987
 DIPOLE           X         Y         Z       TOTAL
 POINT-CHG.    -0.068     0.040     0.027     0.084
 HYBRID         0.015    -0.070    -0.064     0.096
 SUM           -0.053    -0.030    -0.036     0.071


          ATOMIC ORBITAL ELECTRON POPULATIONS

     Atom    s        px        py        pz   
    1  C   1.05192   1.17245   1.05038   1.16107
    2  C   1.05569   1.10154   1.01830   1.07269
    3  C   1.05982   0.99963   1.14415   1.06577
    4  C   1.05943   1.00838   1.06190   1.13549
    5  C   1.06381   1.02726   1.07234   1.13067
    6  C   1.06641   0.96240   0.97355   1.09249
    7  C   1.06515   1.01194   1.05596   1.14601
    8  C   1.06142   1.02534   1.02347   1.15203
    9  C   1.06163   1.04317   1.00730   1.15169
   10  C   1.06487   1.00670   1.06417   1.14016
   11  H   0.86396
   12  H   0.85342
   13  H   0.85883
   14  H   0.87204
   15  H   0.86751
   16  H   0.86153
   17  H   0.87069
   18  H   0.86785
   19  H   0.86028
   20  H   0.85878
   21  H   0.86183
   22  H   0.86889
   23  H   0.86391
   24  H   0.86933
   25  H   0.86933
   26  H   0.87029
   27  H   0.86999
   28  H   0.86977
   29  H   0.86338
   30  H   0.86987

 **********************
 *                    *
 * JOB ENDED NORMALLY *
 *                    *
 **********************



 TOTAL JOB TIME:             0.77 SECONDS

 == MOPAC DONE ==
