 *******************************************************************************
 **                                                                           **
 **                              MOPAC v23.0.3                                **
 **                                                                           **
 *******************************************************************************
 **          Digital Object Identifier (DOI): 10.5281/zenodo.6511958          **
 **    Visit the DOI location for information on how to cite this program.    **
 *******************************************************************************

                              PM7 CALCULATION RESULTS

 *******************************************************************************
 *  CALCULATION DONE:                                Fri Jul 25 15:24:39 2025  *
 *  PM7        - The PM7 Hamiltonian to be used
 *  XYZ        - CARTESIAN COORDINATE SYSTEM TO BE USED
 *  T=         - A TIME OF 172800.0 SECONDS REQUESTED
 *  DUMP=N     - RESTART FILE WRITTEN EVERY 7200.0 SECONDS REQUESTED
 *******************************************************************************
PM7 XYZ

 freesolv_432 - geometry optimisation
   ATOM   CHEMICAL          X               Y               Z
  NUMBER   SYMBOL      (ANGSTROMS)     (ANGSTROMS)     (ANGSTROMS)

     1       C          3.86770100  *  -0.08867300  *   0.31045000  *
     2       C          2.38063500  *   0.03604300  *   0.14441300  *
     3       C          1.65479700  *   0.60974700  *   1.11369800  *
     4       C          0.19188200  *   0.75704000  *   1.00096600  *
     5       O         -0.42675800  *   1.29723700  *   1.95600600  *
     6       C         -0.54271400  *   0.31387000  *  -0.25841600  *
     7       C          0.26993900  *  -0.82167500  *  -0.92838000  *
     8       C          1.73158000  *  -0.40851100  *  -1.14285100  *
     9       C         -2.03178000  *  -0.08582800  *   0.03876300  *
    10       C         -2.92364800  *   1.16354000  *   0.18116000  *
    11       C         -2.65423800  *  -0.99516400  *  -1.03807900  *
    12       H          4.33641200  *  -0.52988000  *  -0.59430800  *
    13       H          4.09451000  *  -0.74156800  *   1.17964400  *
    14       H          4.31428200  *   0.91400100  *   0.48055100  *
    15       H          2.14162100  *   0.95398300  *   2.01929200  *
    16       H         -0.54367300  *   1.17328700  *  -0.96570600  *
    17       H         -0.15344200  *  -1.06514900  *  -1.92598800  *
    18       H          0.23490100  *  -1.73685900  *  -0.29612700  *
    19       H          2.28579800  *  -1.27152400  *  -1.57101800  *
    20       H          1.77779000  *   0.42729700  *  -1.87414500  *
    21       H         -2.06802200  *  -0.64927400  *   0.99803700  *
    22       H         -2.56405600  *   1.84269900  *   0.97752400  *
    23       H         -2.95374200  *   1.73040200  *  -0.77427000  *
    24       H         -3.96058600  *   0.86683200  *   0.44828000  *
    25       H         -2.16466600  *  -1.99143600  *  -1.04348800  *
    26       H         -3.73070600  *  -1.17032600  *  -0.82499500  *
    27       H         -2.56381800  *  -0.53011100  *  -2.04325900  *



          CARTESIAN COORDINATES 

    NO.       ATOM           X           Y           Z

     1         C          3.8677     -0.0887      0.3105
     2         C          2.3806      0.0360      0.1444
     3         C          1.6548      0.6097      1.1137
     4         C          0.1919      0.7570      1.0010
     5         O         -0.4268      1.2972      1.9560
     6         C         -0.5427      0.3139     -0.2584
     7         C          0.2699     -0.8217     -0.9284
     8         C          1.7316     -0.4085     -1.1429
     9         C         -2.0318     -0.0858      0.0388
    10         C         -2.9236      1.1635      0.1812
    11         C         -2.6542     -0.9952     -1.0381
    12         H          4.3364     -0.5299     -0.5943
    13         H          4.0945     -0.7416      1.1796
    14         H          4.3143      0.9140      0.4806
    15         H          2.1416      0.9540      2.0193
    16         H         -0.5437      1.1733     -0.9657
    17         H         -0.1534     -1.0651     -1.9260
    18         H          0.2349     -1.7369     -0.2961
    19         H          2.2858     -1.2715     -1.5710
    20         H          1.7778      0.4273     -1.8741
    21         H         -2.0680     -0.6493      0.9980
    22         H         -2.5641      1.8427      0.9775
    23         H         -2.9537      1.7304     -0.7743
    24         H         -3.9606      0.8668      0.4483
    25         H         -2.1647     -1.9914     -1.0435
    26         H         -3.7307     -1.1703     -0.8250
    27         H         -2.5638     -0.5301     -2.0433

 General Reference for PM7:
 "Optimization of Parameters for Semiempirical Methods VI: More Modifications to the 
 NDDO Approximations and Re-optimization of Parameters", J. J. P. Stewart, J. Mol. Mod., 1:32, 19 (2013)
 https://link.springer.com/article/10.1007/s00894-012-1667-x

           Empirical Formula: C10 H16 O  =    27 atoms



      MOLECULAR POINT GROUP   :   C1  


      RHF CALCULATION, NO. OF DOUBLY OCCUPIED LEVELS = 31


          Geometry optimization using EF

          DIAGONAL MATRIX USED AS START HESSIAN

 CYCLE:     1 TIME:   0.016 TIME LEFT:  2.00D  GRAD.:   129.044 HEAT: -53.32384
 CYCLE:     2 TIME:   0.027 TIME LEFT:  2.00D  GRAD.:    55.811 HEAT: -55.98902
 CYCLE:     3 TIME:   0.012 TIME LEFT:  2.00D  GRAD.:    27.034 HEAT: -57.09543
 CYCLE:     4 TIME:   0.020 TIME LEFT:  2.00D  GRAD.:    29.706 HEAT: -57.48179
 CYCLE:     5 TIME:   0.016 TIME LEFT:  2.00D  GRAD.:    36.189 HEAT: -57.59817
 CYCLE:     6 TIME:   0.012 TIME LEFT:  2.00D  GRAD.:    19.326 HEAT: -57.87603
 CYCLE:     7 TIME:   0.008 TIME LEFT:  2.00D  GRAD.:    24.885 HEAT: -57.98351
 CYCLE:     8 TIME:   0.012 TIME LEFT:  2.00D  GRAD.:    22.447 HEAT: -58.16438
 CYCLE:     9 TIME:   0.016 TIME LEFT:  2.00D  GRAD.:    19.866 HEAT: -58.24322
 CYCLE:    10 TIME:   0.012 TIME LEFT:  2.00D  GRAD.:    22.297 HEAT: -58.28045
 CYCLE:    11 TIME:   0.008 TIME LEFT:  2.00D  GRAD.:    20.731 HEAT: -58.33602
 CYCLE:    12 TIME:   0.012 TIME LEFT:  2.00D  GRAD.:    21.615 HEAT: -58.35621
 CYCLE:    13 TIME:   0.008 TIME LEFT:  2.00D  GRAD.:    22.576 HEAT: -58.39185
 CYCLE:    14 TIME:   0.008 TIME LEFT:  2.00D  GRAD.:    17.999 HEAT: -58.43740
 CYCLE:    15 TIME:   0.020 TIME LEFT:  2.00D  GRAD.:    12.318 HEAT: -58.51012
 CYCLE:    16 TIME:   0.008 TIME LEFT:  2.00D  GRAD.:     7.210 HEAT: -58.53575
 CYCLE:    17 TIME:   0.020 TIME LEFT:  2.00D  GRAD.:     8.749 HEAT: -58.54500
 CYCLE:    18 TIME:   0.008 TIME LEFT:  2.00D  GRAD.:     2.450 HEAT: -58.56484
 CYCLE:    19 TIME:   0.027 TIME LEFT:  2.00D  GRAD.:     3.112 HEAT: -58.56685
 CYCLE:    20 TIME:   0.008 TIME LEFT:  2.00D  GRAD.:     3.032 HEAT: -58.57541
 CYCLE:    21 TIME:   0.020 TIME LEFT:  2.00D  GRAD.:     4.432 HEAT: -58.57692
 CYCLE:    22 TIME:   0.008 TIME LEFT:  2.00D  GRAD.:     4.224 HEAT: -58.57812
 CYCLE:    23 TIME:   0.008 TIME LEFT:  2.00D  GRAD.:     4.817 HEAT: -58.57992
 CYCLE:    24 TIME:   0.020 TIME LEFT:  2.00D  GRAD.:     1.891 HEAT: -58.58788
 CYCLE:    25 TIME:   0.012 TIME LEFT:  2.00D  GRAD.:     3.802 HEAT: -58.58534
 CYCLE:    26 TIME:   0.008 TIME LEFT:  2.00D  GRAD.:     1.447 HEAT: -58.59178
 CYCLE:    27 TIME:   0.020 TIME LEFT:  2.00D  GRAD.:     4.120 HEAT: -58.58817
 CYCLE:    28 TIME:   0.008 TIME LEFT:  2.00D  GRAD.:     1.637 HEAT: -58.59554
 CYCLE:    29 TIME:   0.008 TIME LEFT:  2.00D  GRAD.:     5.471 HEAT: -58.58760
 CYCLE:    30 TIME:   0.012 TIME LEFT:  2.00D  GRAD.:     2.261 HEAT: -58.60095
 CYCLE:    31 TIME:   0.016 TIME LEFT:  2.00D  GRAD.:     5.397 HEAT: -58.59289
 CYCLE:    32 TIME:   0.012 TIME LEFT:  2.00D  GRAD.:     2.308 HEAT: -58.60749
 CYCLE:    33 TIME:   0.027 TIME LEFT:  2.00D  GRAD.:     3.399 HEAT: -58.60634
 CYCLE:    34 TIME:   0.008 TIME LEFT:  2.00D  GRAD.:     2.437 HEAT: -58.61561
 CYCLE:    35 TIME:   0.035 TIME LEFT:  2.00D  GRAD.:     3.347 HEAT: -58.61605
 CYCLE:    36 TIME:   0.008 TIME LEFT:  2.00D  GRAD.:     3.119 HEAT: -58.63037
 CYCLE:    37 TIME:   0.012 TIME LEFT:  2.00D  GRAD.:     9.231 HEAT: -58.63407
 CYCLE:    38 TIME:   0.008 TIME LEFT:  2.00D  GRAD.:     9.390 HEAT: -58.66515
 CYCLE:    39 TIME:   0.020 TIME LEFT:  2.00D  GRAD.:    11.596 HEAT: -58.66684
 CYCLE:    40 TIME:   0.012 TIME LEFT:  2.00D  GRAD.:     7.985 HEAT: -58.71960
 CYCLE:    41 TIME:   0.035 TIME LEFT:  2.00D  GRAD.:     2.947 HEAT: -58.74728
 CYCLE:    42 TIME:   0.016 TIME LEFT:  2.00D  GRAD.:     3.400 HEAT: -58.74918
 CYCLE:    43 TIME:   0.008 TIME LEFT:  2.00D  GRAD.:     1.794 HEAT: -58.75681
 CYCLE:    44 TIME:   0.012 TIME LEFT:  2.00D  GRAD.:     4.799 HEAT: -58.77765
 CYCLE:    45 TIME:   0.012 TIME LEFT:  2.00D  GRAD.:     6.198 HEAT: -58.80452
 CYCLE:    46 TIME:   0.008 TIME LEFT:  2.00D  GRAD.:     8.157 HEAT: -58.84140
 CYCLE:    47 TIME:   0.035 TIME LEFT:  2.00D  GRAD.:     8.009 HEAT: -58.84901
 CYCLE:    48 TIME:   0.012 TIME LEFT:  2.00D  GRAD.:     4.598 HEAT: -58.87534
 CYCLE:    49 TIME:   0.023 TIME LEFT:  2.00D  GRAD.:     2.980 HEAT: -58.88366
 CYCLE:    50 TIME:   0.012 TIME LEFT:  2.00D  GRAD.:     2.424 HEAT: -58.88898
 CYCLE:    51 TIME:   0.012 TIME LEFT:  2.00D  GRAD.:     4.781 HEAT: -58.90443
 CYCLE:    52 TIME:   0.008 TIME LEFT:  2.00D  GRAD.:     6.626 HEAT: -58.92048
 CYCLE:    53 TIME:   0.012 TIME LEFT:  2.00D  GRAD.:     9.274 HEAT: -58.94614
 CYCLE:    54 TIME:   0.008 TIME LEFT:  2.00D  GRAD.:     6.436 HEAT: -58.98210
 CYCLE:    55 TIME:   0.035 TIME LEFT:  2.00D  GRAD.:     8.708 HEAT: -58.98708
 CYCLE:    56 TIME:   0.012 TIME LEFT:  2.00D  GRAD.:     8.464 HEAT: -58.99749
 CYCLE:    57 TIME:   0.008 TIME LEFT:  2.00D  GRAD.:     4.358 HEAT: -59.02528
 CYCLE:    58 TIME:   0.012 TIME LEFT:  2.00D  GRAD.:     1.769 HEAT: -59.04382
 CYCLE:    59 TIME:   0.008 TIME LEFT:  2.00D  GRAD.:     3.450 HEAT: -59.06028
 CYCLE:    60 TIME:   0.012 TIME LEFT:  2.00D  GRAD.:     2.765 HEAT: -59.08243
 CYCLE:    61 TIME:   0.012 TIME LEFT:  2.00D  GRAD.:     2.771 HEAT: -59.09988
 CYCLE:    62 TIME:   0.008 TIME LEFT:  2.00D  GRAD.:     3.213 HEAT: -59.09746
 CYCLE:    63 TIME:   0.012 TIME LEFT:  2.00D  GRAD.:     2.027 HEAT: -59.10682
 CYCLE:    64 TIME:   0.008 TIME LEFT:  2.00D  GRAD.:     2.138 HEAT: -59.10966
 CYCLE:    65 TIME:   0.012 TIME LEFT:  2.00D  GRAD.:     1.874 HEAT: -59.11274
 CYCLE:    66 TIME:   0.012 TIME LEFT:  2.00D  GRAD.:     1.291 HEAT: -59.11761
 CYCLE:    67 TIME:   0.008 TIME LEFT:  2.00D  GRAD.:     0.960 HEAT: -59.12013

     GRADIENT =  0.95959 IS LESS THAN CUTOFF =  1.00000



 -------------------------------------------------------------------------------
 PM7 XYZ

 freesolv_432 - geometry optimisation


     GEOMETRY OPTIMISED USING EIGENVECTOR FOLLOWING (EF).     
     SCF FIELD WAS ACHIEVED                                   


                              PM7 CALCULATION
                                                       MOPAC v23.0.3 Linux
                                                       Fri Jul 25 15:24:40 2025




          FINAL HEAT OF FORMATION =        -59.12014 KCAL/MOL =    -247.35865 KJ/MOL


          COSMO AREA              =        201.31 SQUARE ANGSTROMS
          COSMO VOLUME            =        213.10 CUBIC ANGSTROMS

          GRADIENT NORM           =          0.95959          =       0.18467 PER ATOM
          IONIZATION POTENTIAL    =          9.647301 EV
          HOMO LUMO ENERGIES (EV) =         -9.647  0.086
          NO. OF FILLED LEVELS    =         31
          MOLECULAR WEIGHT        =        152.2358         POINT GROUP:  C1  

          MOLECULAR DIMENSIONS (Angstroms)

            Atom       Atom       Distance
            H    26    H    14     8.37742
            H    22    H    19     5.30623
            H    21    H    20     2.83219


          SCF CALCULATIONS        =         99

          WALL-CLOCK TIME         =      0.934 SECONDS
          COMPUTATION TIME        =     18.677 SECONDS




   ATOM   CHEMICAL          X               Y               Z
  NUMBER   SYMBOL      (ANGSTROMS)     (ANGSTROMS)     (ANGSTROMS)

     1       C          3.83084357  *   0.16779692  *   0.12757105  *
     2       C          2.34151488  *   0.12505629  *   0.12101650  *
     3       C          1.60788528  *   0.75440039  *   1.04958122  *
     4       C          0.13815252  *   0.67502244  *   1.06881609  *
     5       O         -0.49263769  *   0.95654633  *   2.05939477  *
     6       C         -0.52489709  *   0.21893978  *  -0.22391556  *
     7       C          0.25031281  *  -1.01217011  *  -0.71863836  *
     8       C          1.72226099  *  -0.66698852  *  -0.98768179  *
     9       C         -2.02787250  *  -0.06546569  *  -0.00891598  *
    10       C         -2.78620366  *   1.25293586  *   0.19812084  *
    11       C         -2.64554750  *  -0.81174400  *  -1.19904004  *
    12       H          4.25444435  *   0.21711665  *  -0.88422809  *
    13       H          4.24046615  *  -0.73509939  *   0.60768094  *
    14       H          4.22648638  *   1.02972716  *   0.68424803  *
    15       H          2.04718377  *   1.33333133  *   1.85878711  *
    16       H         -0.41935761  *   1.04364886  *  -0.97138262  *
    17       H         -0.20621149  *  -1.40901091  *  -1.64480666  *
    18       H          0.17873043  *  -1.82651703  *   0.02806596  *
    19       H          2.29350553  *  -1.60184183  *  -1.16291507  *
    20       H          1.80592592  *  -0.08954713  *  -1.93421199  *
    21       H         -2.14026765  *  -0.69108731  *   0.91114083  *
    22       H         -2.37821935  *   1.81680848  *   1.04880004  *
    23       H         -2.73681532  *   1.89509786  *  -0.68539831  *
    24       H         -3.84263806  *   1.06846152  *   0.41953145  *
    25       H         -2.29692106  *  -1.84743118  *  -1.25623137  *
    26       H         -3.73799096  *  -0.84833552  *  -1.11048798  *
    27       H         -2.41307932  *  -0.31889950  *  -2.14840787  *

                             CARTESIAN COORDINATES

   1    C        3.830843568     0.167796921     0.127571048
   2    C        2.341514883     0.125056294     0.121016499
   3    C        1.607885284     0.754400395     1.049581219
   4    C        0.138152517     0.675022443     1.068816086
   5    O       -0.492637689     0.956546326     2.059394771
   6    C       -0.524897090     0.218939778    -0.223915559
   7    C        0.250312805    -1.012170114    -0.718638362
   8    C        1.722260994    -0.666988517    -0.987681794
   9    C       -2.027872503    -0.065465686    -0.008915981
  10    C       -2.786203661     1.252935857     0.198120845
  11    C       -2.645547496    -0.811744000    -1.199040035
  12    H        4.254444346     0.217116647    -0.884228093
  13    H        4.240466150    -0.735099391     0.607680940
  14    H        4.226486377     1.029727157     0.684248027
  15    H        2.047183768     1.333331326     1.858787108
  16    H       -0.419357607     1.043648865    -0.971382615
  17    H       -0.206211490    -1.409010909    -1.644806662
  18    H        0.178730433    -1.826517028     0.028065955
  19    H        2.293505531    -1.601841828    -1.162915072
  20    H        1.805925920    -0.089547128    -1.934211987
  21    H       -2.140267647    -0.691087312     0.911140834
  22    H       -2.378219353     1.816808479     1.048800036
  23    H       -2.736815321     1.895097855    -0.685398309
  24    H       -3.842638061     1.068461518     0.419531445
  25    H       -2.296921057    -1.847431181    -1.256231367
  26    H       -3.737990962    -0.848335522    -1.110487977
  27    H       -2.413079316    -0.318899499    -2.148407871


           Empirical Formula: C10 H16 O  =    27 atoms



      MOLECULAR POINT GROUP   :   C1  


                  EIGENVALUES  
 -31.18281 -30.02582 -28.83472 -26.69183 -25.37641 -23.84680 -23.57014 -21.06979
 -20.22606 -19.02089 -18.05832 -16.28834 -15.98839 -15.60990 -15.05055 -14.69720
 -14.55512 -14.40860 -13.76772 -13.60887 -13.35206 -13.24758 -13.08003 -12.70168
 -12.23540 -11.93742 -11.73559 -11.42374 -11.16445 -10.05657  -9.64730   0.08599
   1.87218   3.23012   3.45193   3.67007   3.95162   4.14453   4.24383   4.50002
   4.78578   4.84730   5.02754   5.11664   5.21369   5.34226   5.51321   5.77466
   5.85080   5.89575   5.95163   6.08169   6.09554   6.26963   6.30794   6.40788
   6.44798   6.49956   7.04739   7.38347


              NET ATOMIC CHARGES AND DIPOLE CONTRIBUTIONS

  ATOM NO.   TYPE          CHARGE      No. of ELECS.   s-Pop       p-Pop       
    1          C          -0.474650        4.4746     1.05195     3.42270
    2          C           0.142972        3.8570     1.08411     2.77292
    3          C          -0.377257        4.3773     1.09354     3.28372
    4          C           0.480290        3.5197     1.11782     2.40189
    5          O          -0.464639        6.4646     1.87773     4.58691
    6          C          -0.232071        4.2321     1.07976     3.15231
    7          C          -0.263899        4.2639     1.06064     3.20326
    8          C          -0.312727        4.3127     1.05934     3.25338
    9          C          -0.050537        4.0505     1.05763     2.99291
   10          C          -0.457319        4.4573     1.05685     3.40047
   11          C          -0.457662        4.4577     1.05657     3.40109
   12          H           0.158608        0.8414     0.84139
   13          H           0.168249        0.8318     0.83175
   14          H           0.165112        0.8349     0.83489
   15          H           0.180196        0.8198     0.81980
   16          H           0.162732        0.8373     0.83727
   17          H           0.147298        0.8527     0.85270
   18          H           0.148290        0.8517     0.85171
   19          H           0.155264        0.8447     0.84474
   20          H           0.159604        0.8404     0.84040
   21          H           0.145171        0.8548     0.85483
   22          H           0.168043        0.8320     0.83196
   23          H           0.137701        0.8623     0.86230
   24          H           0.143095        0.8569     0.85691
   25          H           0.138495        0.8615     0.86150
   26          H           0.147218        0.8528     0.85278
   27          H           0.142423        0.8576     0.85758
 DIPOLE           X         Y         Z       TOTAL
 POINT-CHG.     2.343    -1.430    -3.451     4.409
 HYBRID         0.106     0.014    -0.043     0.115
 SUM            2.449    -1.417    -3.494     4.495


          ATOMIC ORBITAL ELECTRON POPULATIONS

     Atom    s        px        py        pz   
    1  C   1.05195   1.04472   1.19087   1.18711
    2  C   1.08411   0.95039   0.89780   0.92473
    3  C   1.09354   1.04831   1.13248   1.10293
    4  C   1.11782   0.88125   0.67875   0.84188
    5  O   1.87773   1.73159   1.42917   1.42615
    6  C   1.07976   1.02103   1.06020   1.07108
    7  C   1.06064   0.98556   1.06298   1.15472
    8  C   1.05934   1.04103   1.12796   1.08440
    9  C   1.05763   0.93469   1.01207   1.04614
   10  C   1.05685   1.14223   1.07984   1.17841
   11  C   1.05657   1.15689   1.13804   1.10615
   12  H   0.84139
   13  H   0.83175
   14  H   0.83489
   15  H   0.81980
   16  H   0.83727
   17  H   0.85270
   18  H   0.85171
   19  H   0.84474
   20  H   0.84040
   21  H   0.85483
   22  H   0.83196
   23  H   0.86230
   24  H   0.85691
   25  H   0.86150
   26  H   0.85278
   27  H   0.85758

 **********************
 *                    *
 * JOB ENDED NORMALLY *
 *                    *
 **********************



 TOTAL JOB TIME:             0.94 SECONDS

 == MOPAC DONE ==
