 *******************************************************************************
 **                                                                           **
 **                              MOPAC v23.0.3                                **
 **                                                                           **
 *******************************************************************************
 **          Digital Object Identifier (DOI): 10.5281/zenodo.6511958          **
 **    Visit the DOI location for information on how to cite this program.    **
 *******************************************************************************

                              PM7 CALCULATION RESULTS

 *******************************************************************************
 *  CALCULATION DONE:                                Fri Jul 25 15:21:53 2025  *
 *  PM7        - The PM7 Hamiltonian to be used
 *  XYZ        - CARTESIAN COORDINATE SYSTEM TO BE USED
 *  T=         - A TIME OF 172800.0 SECONDS REQUESTED
 *  DUMP=N     - RESTART FILE WRITTEN EVERY 7200.0 SECONDS REQUESTED
 *******************************************************************************
PM7 XYZ

 freesolv_122 - geometry optimisation
   ATOM   CHEMICAL          X               Y               Z
  NUMBER   SYMBOL      (ANGSTROMS)     (ANGSTROMS)     (ANGSTROMS)

     1       C          3.52592600  *  -0.38357100  *   0.43971600  *
     2       C          2.81904900  *  -1.57663000  *   0.56063500  *
     3       C          1.42336100  *  -1.58131900  *   0.50110300  *
     4       C          0.69915600  *  -0.37723800  *   0.31713800  *
     5       C          1.43974800  *   0.83334000  *   0.19544600  *
     6       C          2.84262000  *   0.81641200  *   0.25803600  *
     7       C          0.77779400  *   2.05201200  *   0.01230800  *
     8       C         -0.60916900  *   2.10010000  *  -0.05353400  *
     9       C         -1.36810800  *   0.93069300  *   0.06216400  *
    10       C         -0.72778800  *  -0.32776200  *   0.24941400  *
    11       C         -1.54761700  *  -1.47831100  *   0.36007700  *
    12       C         -2.93900200  *  -1.37699500  *   0.28728600  *
    13       C         -3.54712300  *  -0.13834200  *   0.10392900  *
    14       C         -2.76840900  *   1.01095100  *  -0.00833800  *
    15       H          4.60731400  *  -0.38868600  *   0.48694100  *
    16       H          3.35576100  *  -2.50620100  *   0.70169600  *
    17       H          0.94371500  *  -2.54033600  *   0.60213600  *
    18       H          3.41185800  *   1.73412000  *   0.16612400  *
    19       H          1.33741500  *   2.97560600  *  -0.08076100  *
    20       H         -1.09230300  *   3.05985100  *  -0.19609500  *
    21       H         -1.14709700  *  -2.46784600  *   0.50285700  *
    22       H         -3.54960200  *  -2.26678800  *   0.37387800  *
    23       H         -4.62588400  *  -0.06855300  *   0.04859500  *
    24       H         -3.26161200  *   1.96549100  *  -0.15071100  *



          CARTESIAN COORDINATES 

    NO.       ATOM           X           Y           Z

     1         C          3.5259     -0.3836      0.4397
     2         C          2.8190     -1.5766      0.5606
     3         C          1.4234     -1.5813      0.5011
     4         C          0.6992     -0.3772      0.3171
     5         C          1.4397      0.8333      0.1954
     6         C          2.8426      0.8164      0.2580
     7         C          0.7778      2.0520      0.0123
     8         C         -0.6092      2.1001     -0.0535
     9         C         -1.3681      0.9307      0.0622
    10         C         -0.7278     -0.3278      0.2494
    11         C         -1.5476     -1.4783      0.3601
    12         C         -2.9390     -1.3770      0.2873
    13         C         -3.5471     -0.1383      0.1039
    14         C         -2.7684      1.0110     -0.0083
    15         H          4.6073     -0.3887      0.4869
    16         H          3.3558     -2.5062      0.7017
    17         H          0.9437     -2.5403      0.6021
    18         H          3.4119      1.7341      0.1661
    19         H          1.3374      2.9756     -0.0808
    20         H         -1.0923      3.0599     -0.1961
    21         H         -1.1471     -2.4678      0.5029
    22         H         -3.5496     -2.2668      0.3739
    23         H         -4.6259     -0.0686      0.0486
    24         H         -3.2616      1.9655     -0.1507

 General Reference for PM7:
 "Optimization of Parameters for Semiempirical Methods VI: More Modifications to the 
 NDDO Approximations and Re-optimization of Parameters", J. J. P. Stewart, J. Mol. Mod., 1:32, 19 (2013)
 https://link.springer.com/article/10.1007/s00894-012-1667-x

           Empirical Formula: C14 H10  =    24 atoms



      MOLECULAR POINT GROUP   :   C2v 


      RHF CALCULATION, NO. OF DOUBLY OCCUPIED LEVELS = 33


          Geometry optimization using EF

          DIAGONAL MATRIX USED AS START HESSIAN

 CYCLE:     1 TIME:   0.027 TIME LEFT:  2.00D  GRAD.:   125.285 HEAT:  58.49235
 CYCLE:     2 TIME:   0.043 TIME LEFT:  2.00D  GRAD.:    28.795 HEAT:  55.55273
 CYCLE:     3 TIME:   0.023 TIME LEFT:  2.00D  GRAD.:    31.524 HEAT:  55.36333
 CYCLE:     4 TIME:   0.012 TIME LEFT:  2.00D  GRAD.:    13.519 HEAT:  55.02037
 CYCLE:     5 TIME:   0.016 TIME LEFT:  2.00D  GRAD.:    14.021 HEAT:  54.92974
 CYCLE:     6 TIME:   0.012 TIME LEFT:  2.00D  GRAD.:    18.751 HEAT:  54.85297
 CYCLE:     7 TIME:   0.020 TIME LEFT:  2.00D  GRAD.:    10.410 HEAT:  54.77996
 CYCLE:     8 TIME:   0.020 TIME LEFT:  2.00D  GRAD.:     8.028 HEAT:  54.75357
 CYCLE:     9 TIME:   0.012 TIME LEFT:  2.00D  GRAD.:     7.305 HEAT:  54.73237
 CYCLE:    10 TIME:   0.008 TIME LEFT:  2.00D  GRAD.:     8.274 HEAT:  54.71753
 CYCLE:    11 TIME:   0.012 TIME LEFT:  2.00D  GRAD.:     7.831 HEAT:  54.70292
 CYCLE:    12 TIME:   0.012 TIME LEFT:  2.00D  GRAD.:     8.749 HEAT:  54.69201
 CYCLE:    13 TIME:   0.008 TIME LEFT:  2.00D  GRAD.:     7.527 HEAT:  54.67879
 CYCLE:    14 TIME:   0.012 TIME LEFT:  2.00D  GRAD.:     6.010 HEAT:  54.65900
 CYCLE:    15 TIME:   0.020 TIME LEFT:  2.00D  GRAD.:     4.658 HEAT:  54.64988
 CYCLE:    16 TIME:   0.012 TIME LEFT:  2.00D  GRAD.:     5.573 HEAT:  54.64205
 CYCLE:    17 TIME:   0.008 TIME LEFT:  2.00D  GRAD.:     4.016 HEAT:  54.63048
 CYCLE:    18 TIME:   0.020 TIME LEFT:  2.00D  GRAD.:     4.247 HEAT:  54.62684
 CYCLE:    19 TIME:   0.012 TIME LEFT:  2.00D  GRAD.:     1.545 HEAT:  54.61765
 CYCLE:    20 TIME:   0.012 TIME LEFT:  2.00D  GRAD.:    10.504 HEAT:  54.60289
 CYCLE:    21 TIME:   0.039 TIME LEFT:  2.00D  GRAD.:    10.055 HEAT:  54.59664
 CYCLE:    22 TIME:   0.008 TIME LEFT:  2.00D  GRAD.:     6.152 HEAT:  54.59103
 CYCLE:    23 TIME:   0.020 TIME LEFT:  2.00D  GRAD.:     6.710 HEAT:  54.58483
 CYCLE:    24 TIME:   0.020 TIME LEFT:  2.00D  GRAD.:     3.661 HEAT:  54.57893
 CYCLE:    25 TIME:   0.012 TIME LEFT:  2.00D  GRAD.:     3.416 HEAT:  54.57836
 CYCLE:    26 TIME:   0.008 TIME LEFT:  2.00D  GRAD.:     1.945 HEAT:  54.57660
 CYCLE:    27 TIME:   0.020 TIME LEFT:  2.00D  GRAD.:     5.189 HEAT:  54.58151
 CYCLE:    28 TIME:   0.012 TIME LEFT:  2.00D  GRAD.:     1.655 HEAT:  54.57684
 CYCLE:    29 TIME:   0.020 TIME LEFT:  2.00D  GRAD.:     5.721 HEAT:  54.58488
 CYCLE:    30 TIME:   0.012 TIME LEFT:  2.00D  GRAD.:     5.192 HEAT:  54.58255
 CYCLE:    31 TIME:   0.027 TIME LEFT:  2.00D  GRAD.:     1.683 HEAT:  54.57693
 CYCLE:    32 TIME:   0.012 TIME LEFT:  2.00D  GRAD.:     4.154 HEAT:  54.57995
 CYCLE:    33 TIME:   0.008 TIME LEFT:  2.00D  GRAD.:     5.170 HEAT:  54.58473
 CYCLE:    34 TIME:   0.012 TIME LEFT:  2.00D  GRAD.:     4.767 HEAT:  54.58318
 CYCLE:    35 TIME:   0.039 TIME LEFT:  2.00D  GRAD.:     2.166 HEAT:  54.57783
 CYCLE:    36 TIME:   0.027 TIME LEFT:  2.00D  GRAD.:     2.423 HEAT:  54.57740
 CYCLE:    37 TIME:   0.012 TIME LEFT:  2.00D  GRAD.:     1.612 HEAT:  54.57656
 CYCLE:    38 TIME:   0.008 TIME LEFT:  2.00D  GRAD.:     3.866 HEAT:  54.58012
 CYCLE:    39 TIME:   0.012 TIME LEFT:  2.00D  GRAD.:     1.724 HEAT:  54.57696
 CYCLE:    40 TIME:   0.012 TIME LEFT:  2.00D  GRAD.:     3.158 HEAT:  54.57897
 CYCLE:    41 TIME:   0.008 TIME LEFT:  2.00D  GRAD.:     3.124 HEAT:  54.57950
 CYCLE:    42 TIME:   0.012 TIME LEFT:  2.00D  GRAD.:     2.831 HEAT:  54.57878
 CYCLE:    43 TIME:   0.012 TIME LEFT:  2.00D  GRAD.:     2.118 HEAT:  54.57734
 CYCLE:    44 TIME:   0.008 TIME LEFT:  2.00D  GRAD.:     4.250 HEAT:  54.58292
 CYCLE:    45 TIME:   0.012 TIME LEFT:  2.00D  GRAD.:     0.440 HEAT:  54.57561

     GRADIENT =  0.44029 IS LESS THAN CUTOFF =  1.00000



 -------------------------------------------------------------------------------
 PM7 XYZ

 freesolv_122 - geometry optimisation


     GEOMETRY OPTIMISED USING EIGENVECTOR FOLLOWING (EF).     
     SCF FIELD WAS ACHIEVED                                   


                              PM7 CALCULATION
                                                       MOPAC v23.0.3 Linux
                                                       Fri Jul 25 15:21:54 2025




          FINAL HEAT OF FORMATION =         54.57560 KCAL/MOL =     228.34431 KJ/MOL


          COSMO AREA              =        209.56 SQUARE ANGSTROMS
          COSMO VOLUME            =        220.31 CUBIC ANGSTROMS

          GRADIENT NORM           =          0.44029          =       0.08987 PER ATOM
          IONIZATION POTENTIAL    =          8.828016 EV
          HOMO LUMO ENERGIES (EV) =         -8.828 -0.649
          NO. OF FILLED LEVELS    =         33
          MOLECULAR WEIGHT        =        178.2330         POINT GROUP:  C2v 

          MOLECULAR DIMENSIONS (Angstroms)

            Atom       Atom       Distance
            H    23    H    15     9.25027
            H    21    H    19     5.55011
            H    19    H    15     0.00039


          SCF CALCULATIONS        =         68

          WALL-CLOCK TIME         =      0.727 SECONDS
          COMPUTATION TIME        =     14.526 SECONDS




   ATOM   CHEMICAL          X               Y               Z
  NUMBER   SYMBOL      (ANGSTROMS)     (ANGSTROMS)     (ANGSTROMS)

     1       C          3.52004289  *  -0.39544222  *   0.44107873  *
     2       C          2.78926612  *  -1.59142688  *   0.56125174  *
     3       C          1.41140009  *  -1.57397361  *   0.49968092  *
     4       C          0.70899630  *  -0.36229756  *   0.31564876  *
     5       C          1.44621107  *   0.83194685  *   0.19585417  *
     6       C          2.85677198  *   0.79938806  *   0.26079963  *
     7       C          0.76195473  *   2.08269358  *   0.00764382  *
     8       C         -0.59101908  *   2.12970895  *  -0.05646083  *
     9       C         -1.37455215  *   0.92987909  *   0.06201811  *
    10       C         -0.73650485  *  -0.31222023  *   0.24703946  *
    11       C         -1.53498771  *  -1.47190893  *   0.35969949  *
    12       C         -2.91049750  *  -1.39374947  *   0.29066470  *
    13       C         -3.54222713  *  -0.15062424  *   0.10577278  *
    14       C         -2.78382276  *   0.99495316  *  -0.00693732  *
    15       H          4.60640314  *  -0.42460117  *   0.49166277  *
    16       H          3.32165829  *  -2.53010171  *   0.70320992  *
    17       H          0.85727877  *  -2.50722245  *   0.59416214  *
    18       H          3.41285641  *   1.73051277  *   0.16657121  *
    19       H          1.36498033  *   2.98559160  *  -0.08104134  *
    20       H         -1.11899848  *   3.07165902  *  -0.19870512  *
    21       H         -1.05823336  *  -2.44084951  *   0.50301135  *
    22       H         -3.51751461  *  -2.29283650  *   0.37855855  *
    23       H         -4.62792204  *  -0.10444817  *   0.05319051  *
    24       H         -3.26299397  *   1.96205229  *  -0.15034746  *

                             CARTESIAN COORDINATES

   1    C        3.520042888    -0.395442224     0.441078731
   2    C        2.789266124    -1.591426875     0.561251742
   3    C        1.411400094    -1.573973607     0.499680922
   4    C        0.708996295    -0.362297557     0.315648757
   5    C        1.446211075     0.831946846     0.195854166
   6    C        2.856771985     0.799388058     0.260799628
   7    C        0.761954729     2.082693584     0.007643817
   8    C       -0.591019082     2.129708953    -0.056460825
   9    C       -1.374552153     0.929879086     0.062018112
  10    C       -0.736504855    -0.312220234     0.247039462
  11    C       -1.534987711    -1.471908934     0.359699488
  12    C       -2.910497495    -1.393749473     0.290664702
  13    C       -3.542227132    -0.150624240     0.105772777
  14    C       -2.783822763     0.994953159    -0.006937322
  15    H        4.606403136    -0.424601169     0.491662775
  16    H        3.321658287    -2.530101714     0.703209921
  17    H        0.857278771    -2.507222452     0.594162138
  18    H        3.412856408     1.730512766     0.166571212
  19    H        1.364980327     2.985591603    -0.081041338
  20    H       -1.118998485     3.071659015    -0.198705118
  21    H       -1.058233360    -2.440849510     0.503011351
  22    H       -3.517514613    -2.292836498     0.378558551
  23    H       -4.627922040    -0.104448166     0.053190511
  24    H       -3.262993966     1.962052293    -0.150347457


           Empirical Formula: C14 H10  =    24 atoms



      MOLECULAR POINT GROUP   :   C2v 


                  EIGENVALUES  
 -31.29244 -30.30572 -28.73049 -27.12450 -26.12276 -24.76065 -24.74589 -22.07661
 -21.54646 -21.31156 -19.99097 -18.17843 -17.83341 -16.75970 -16.11434 -15.94862
 -14.71996 -14.64956 -14.53686 -14.35561 -14.29765 -13.88012 -13.35205 -13.13575
 -12.47444 -12.41042 -11.68946 -11.68696 -11.42387 -10.66851 -10.09105  -9.03077
  -8.82802  -0.64935  -0.47143   0.35327   0.75926   1.44741   2.33451   3.01847
   3.71873   3.73002   4.35374   4.39150   4.64527   4.79901   4.82261   4.89569
   5.01520   5.05977   5.08396   5.22890   5.36355   5.60691   5.69150   5.79797
   5.89109   5.91404   5.96554   6.07567   6.09032   6.10905   6.13908   6.22467
   6.24653   6.33650


              NET ATOMIC CHARGES AND DIPOLE CONTRIBUTIONS

  ATOM NO.   TYPE          CHARGE      No. of ELECS.   s-Pop       p-Pop       
    1          C          -0.146517        4.1465     1.08260     3.06392
    2          C          -0.142035        4.1420     1.08250     3.05953
    3          C          -0.152326        4.1523     1.08374     3.06859
    4          C          -0.012077        4.0121     1.06487     2.94721
    5          C          -0.007638        4.0076     1.06284     2.94480
    6          C          -0.149661        4.1497     1.08462     3.06504
    7          C          -0.152581        4.1526     1.08522     3.06736
    8          C          -0.152661        4.1527     1.08516     3.06750
    9          C          -0.007579        4.0076     1.06282     2.94476
   10          C          -0.012109        4.0121     1.06485     2.94726
   11          C          -0.152277        4.1523     1.08373     3.06855
   12          C          -0.142060        4.1421     1.08249     3.05957
   13          C          -0.146510        4.1465     1.08261     3.06390
   14          C          -0.149692        4.1497     1.08466     3.06503
   15          H           0.149609        0.8504     0.85039
   16          H           0.150488        0.8495     0.84951
   17          H           0.153712        0.8463     0.84629
   18          H           0.152367        0.8476     0.84763
   19          H           0.156686        0.8433     0.84331
   20          H           0.156687        0.8433     0.84331
   21          H           0.153709        0.8463     0.84629
   22          H           0.150471        0.8495     0.84953
   23          H           0.149615        0.8504     0.85038
   24          H           0.152377        0.8476     0.84762
 DIPOLE           X         Y         Z       TOTAL
 POINT-CHG.    -0.000    -0.012     0.001     0.012
 HYBRID         0.000     0.008    -0.001     0.008
 SUM           -0.000    -0.004     0.000     0.004


          ATOMIC ORBITAL ELECTRON POPULATIONS

     Atom    s        px        py        pz   
    1  C   1.08260   1.07725   0.98726   0.99941
    2  C   1.08250   1.00583   1.05409   0.99962
    3  C   1.08374   1.01224   1.04994   1.00640
    4  C   1.06487   0.96829   0.98348   0.99543
    5  C   1.06284   0.97720   0.97491   0.99269
    6  C   1.08462   1.00372   1.05742   1.00390
    7  C   1.08522   1.01683   1.04648   1.00404
    8  C   1.08516   1.00949   1.05278   1.00524
    9  C   1.06282   0.97700   0.97508   0.99267
   10  C   1.06485   0.96815   0.98360   0.99551
   11  C   1.08373   1.00507   1.05604   1.00744
   12  C   1.08249   1.01242   1.04848   0.99867
   13  C   1.08261   1.07705   0.98742   0.99943
   14  C   1.08466   0.99771   1.06255   1.00477
   15  H   0.85039
   16  H   0.84951
   17  H   0.84629
   18  H   0.84763
   19  H   0.84331
   20  H   0.84331
   21  H   0.84629
   22  H   0.84953
   23  H   0.85038
   24  H   0.84762

 **********************
 *                    *
 * JOB ENDED NORMALLY *
 *                    *
 **********************



 TOTAL JOB TIME:             0.73 SECONDS

 == MOPAC DONE ==
