 *******************************************************************************
 **                                                                           **
 **                              MOPAC v23.0.3                                **
 **                                                                           **
 *******************************************************************************
 **          Digital Object Identifier (DOI): 10.5281/zenodo.6511958          **
 **    Visit the DOI location for information on how to cite this program.    **
 *******************************************************************************

                              PM7 CALCULATION RESULTS

 *******************************************************************************
 *  CALCULATION DONE:                                Fri Jul 25 15:22:33 2025  *
 *  PM7        - The PM7 Hamiltonian to be used
 *  XYZ        - CARTESIAN COORDINATE SYSTEM TO BE USED
 *  T=         - A TIME OF 172800.0 SECONDS REQUESTED
 *  DUMP=N     - RESTART FILE WRITTEN EVERY 7200.0 SECONDS REQUESTED
 *******************************************************************************
PM7 XYZ

 freesolv_22 - geometry optimisation
   ATOM   CHEMICAL          X               Y               Z
  NUMBER   SYMBOL      (ANGSTROMS)     (ANGSTROMS)     (ANGSTROMS)

     1       C         -2.76758700  *   0.13957500  *  -0.30863300  *
     2       O         -1.67589400  *  -0.77445100  *  -0.32109900  *
     3       C         -0.33801500  *  -0.41246800  *  -0.10480300  *
     4       C          0.63850400  *  -1.41645100  *  -0.14507700  *
     5       C          1.98543200  *  -1.10456600  *   0.06447100  *
     6       C          2.36709900  *   0.21559500  *   0.31630900  *
     7       C          1.40222100  *   1.22529000  *   0.35886400  *
     8       C          0.05391400  *   0.91732500  *   0.14976400  *
     9       H         -2.63277900  *   0.90619400  *  -1.10069100  *
    10       H         -2.84610900  *   0.62702600  *   0.68608400  *
    11       H         -3.70725600  *  -0.41525000  *  -0.50751000  *
    12       H          0.35147700  *  -2.44209800  *  -0.33959700  *
    13       H          2.73305500  *  -1.88654000  *   0.03155600  *
    14       H          3.40987000  *   0.45609900  *   0.47838900  *
    15       H          1.69912500  *   2.24771800  *   0.55406200  *
    16       H         -0.67305600  *   1.71700300  *   0.18791100  *



          CARTESIAN COORDINATES 

    NO.       ATOM           X           Y           Z

     1         C         -2.7676      0.1396     -0.3086
     2         O         -1.6759     -0.7745     -0.3211
     3         C         -0.3380     -0.4125     -0.1048
     4         C          0.6385     -1.4165     -0.1451
     5         C          1.9854     -1.1046      0.0645
     6         C          2.3671      0.2156      0.3163
     7         C          1.4022      1.2253      0.3589
     8         C          0.0539      0.9173      0.1498
     9         H         -2.6328      0.9062     -1.1007
    10         H         -2.8461      0.6270      0.6861
    11         H         -3.7073     -0.4153     -0.5075
    12         H          0.3515     -2.4421     -0.3396
    13         H          2.7331     -1.8865      0.0316
    14         H          3.4099      0.4561      0.4784
    15         H          1.6991      2.2477      0.5541
    16         H         -0.6731      1.7170      0.1879

 General Reference for PM7:
 "Optimization of Parameters for Semiempirical Methods VI: More Modifications to the 
 NDDO Approximations and Re-optimization of Parameters", J. J. P. Stewart, J. Mol. Mod., 1:32, 19 (2013)
 https://link.springer.com/article/10.1007/s00894-012-1667-x

           Empirical Formula: C7 H8 O  =    16 atoms



      MOLECULAR POINT GROUP   :   Cs  


      RHF CALCULATION, NO. OF DOUBLY OCCUPIED LEVELS = 21


          Geometry optimization using EF

          DIAGONAL MATRIX USED AS START HESSIAN

 CYCLE:     1 TIME:   0.012 TIME LEFT:  2.00D  GRAD.:    71.730 HEAT: -11.33778
 CYCLE:     2 TIME:   0.012 TIME LEFT:  2.00D  GRAD.:   102.333 HEAT: -11.66141
 CYCLE:     3 TIME:   0.008 TIME LEFT:  2.00D  GRAD.:   103.465 HEAT: -12.94212
 CYCLE:     4 TIME:   0.008 TIME LEFT:  2.00D  GRAD.:   110.237 HEAT: -12.94531
 CYCLE:     5 TIME:   0.008 TIME LEFT:  2.00D  GRAD.:    39.472 HEAT: -15.63979
 CYCLE:     6 TIME:   0.012 TIME LEFT:  2.00D  GRAD.:    25.490 HEAT: -16.10530
 CYCLE:     7 TIME:   0.008 TIME LEFT:  2.00D  GRAD.:    36.094 HEAT: -16.23912
 CYCLE:     8 TIME:   0.004 TIME LEFT:  2.00D  GRAD.:    32.356 HEAT: -16.52221
 CYCLE:     9 TIME:   0.008 TIME LEFT:  2.00D  GRAD.:    14.051 HEAT: -16.72648
 CYCLE:    10 TIME:   0.004 TIME LEFT:  2.00D  GRAD.:    21.659 HEAT: -16.78537
 CYCLE:    11 TIME:   0.008 TIME LEFT:  2.00D  GRAD.:    19.579 HEAT: -16.86994
 CYCLE:    12 TIME:   0.004 TIME LEFT:  2.00D  GRAD.:    23.083 HEAT: -16.88211
 CYCLE:    13 TIME:   0.008 TIME LEFT:  2.00D  GRAD.:     9.838 HEAT: -16.98715
 CYCLE:    14 TIME:   0.008 TIME LEFT:  2.00D  GRAD.:     5.482 HEAT: -17.01831
 CYCLE:    15 TIME:   0.004 TIME LEFT:  2.00D  GRAD.:     6.482 HEAT: -17.02982
 CYCLE:    16 TIME:   0.004 TIME LEFT:  2.00D  GRAD.:     8.196 HEAT: -17.03287
 CYCLE:    17 TIME:   0.008 TIME LEFT:  2.00D  GRAD.:     4.304 HEAT: -17.04932
 CYCLE:    18 TIME:   0.008 TIME LEFT:  2.00D  GRAD.:     4.408 HEAT: -17.05114
 CYCLE:    19 TIME:   0.004 TIME LEFT:  2.00D  GRAD.:     4.636 HEAT: -17.05412
 CYCLE:    20 TIME:   0.008 TIME LEFT:  2.00D  GRAD.:     3.529 HEAT: -17.05651
 CYCLE:    21 TIME:   0.016 TIME LEFT:  2.00D  GRAD.:     3.731 HEAT: -17.05853
 CYCLE:    22 TIME:   0.008 TIME LEFT:  2.00D  GRAD.:     4.812 HEAT: -17.05382
 CYCLE:    23 TIME:   0.008 TIME LEFT:  2.00D  GRAD.:     3.568 HEAT: -17.06122
 CYCLE:    24 TIME:   0.008 TIME LEFT:  2.00D  GRAD.:     5.002 HEAT: -17.05469
 CYCLE:    25 TIME:   0.008 TIME LEFT:  2.00D  GRAD.:     3.608 HEAT: -17.06300
 CYCLE:    26 TIME:   0.008 TIME LEFT:  2.00D  GRAD.:     3.250 HEAT: -17.06405
 CYCLE:    27 TIME:   0.012 TIME LEFT:  2.00D  GRAD.:     0.571 HEAT: -17.06690

     GRADIENT =  0.57098 IS LESS THAN CUTOFF =  1.00000



 -------------------------------------------------------------------------------
 PM7 XYZ

 freesolv_22 - geometry optimisation


     GEOMETRY OPTIMISED USING EIGENVECTOR FOLLOWING (EF).     
     SCF FIELD WAS ACHIEVED                                   


                              PM7 CALCULATION
                                                       MOPAC v23.0.3 Linux
                                                       Fri Jul 25 15:22:33 2025




          FINAL HEAT OF FORMATION =        -17.06690 KCAL/MOL =     -71.40792 KJ/MOL


          COSMO AREA              =        148.58 SQUARE ANGSTROMS
          COSMO VOLUME            =        140.70 CUBIC ANGSTROMS

          GRADIENT NORM           =          0.57098          =       0.14275 PER ATOM
          IONIZATION POTENTIAL    =          8.973577 EV
          HOMO LUMO ENERGIES (EV) =         -8.974  0.195
          NO. OF FILLED LEVELS    =         21
          MOLECULAR WEIGHT        =        108.1396         POINT GROUP:  Cs  

          MOLECULAR DIMENSIONS (Angstroms)

            Atom       Atom       Distance
            H    14    H    11     7.04812
            H    15    H    12     4.50134
            H     9    H    10     1.80980


          SCF CALCULATIONS        =         36

          WALL-CLOCK TIME         =      0.234 SECONDS
          COMPUTATION TIME        =      2.319 SECONDS




   ATOM   CHEMICAL          X               Y               Z
  NUMBER   SYMBOL      (ANGSTROMS)     (ANGSTROMS)     (ANGSTROMS)

     1       C         -2.65992052  *   0.14728240  *  -0.29468334  *
     2       O         -1.61835663  *  -0.81758549  *  -0.32083507  *
     3       C         -0.35075568  *  -0.37664347  *  -0.10071310  *
     4       C          0.59531363  *  -1.41408067  *  -0.14991393  *
     5       C          1.93140880  *  -1.10589932  *   0.05772782  *
     6       C          2.32382923  *   0.21205633  *   0.31052741  *
     7       C          1.37140543  *   1.22556980  *   0.35529249  *
     8       C          0.02034117  *   0.94346036  *   0.14996093  *
     9       H         -2.52335633  *   0.89244476  *  -1.08448280  *
    10       H         -2.73518240  *   0.61586046  *   0.69146933  *
    11       H         -3.54848278  *  -0.46763301  *  -0.49642573  *
    12       H          0.26856922  *  -2.43092945  *  -0.34774629  *
    13       H          2.68093243  *  -1.89628718  *   0.02376907  *
    14       H          3.37329169  *   0.44210342  *   0.47178587  *
    15       H          1.68002854  *   2.25194999  *   0.55260518  *
    16       H         -0.71117262  *   1.74167322  *   0.18748709  *

                             CARTESIAN COORDINATES

   1    C       -2.659920523     0.147282398    -0.294683339
   2    O       -1.618356628    -0.817585489    -0.320835067
   3    C       -0.350755682    -0.376643467    -0.100713095
   4    C        0.595313634    -1.414080674    -0.149913928
   5    C        1.931408799    -1.105899325     0.057727823
   6    C        2.323829226     0.212056328     0.310527408
   7    C        1.371405432     1.225569804     0.355292490
   8    C        0.020341172     0.943460361     0.149960927
   9    H       -2.523356333     0.892444758    -1.084482802
  10    H       -2.735182405     0.615860464     0.691469325
  11    H       -3.548482781    -0.467633008    -0.496425734
  12    H        0.268569224    -2.430929453    -0.347746291
  13    H        2.680932426    -1.896287181     0.023769072
  14    H        3.373291695     0.442103422     0.471785868
  15    H        1.680028541     2.251949990     0.552605176
  16    H       -0.711172617     1.741673220     0.187487094


           Empirical Formula: C7 H8 O  =    16 atoms



      MOLECULAR POINT GROUP   :   Cs  


                  EIGENVALUES  
 -30.84486 -30.04424 -26.19338 -25.53629 -24.41674 -20.98172 -20.68862 -18.39089
 -16.27736 -16.01938 -15.92439 -14.99290 -14.34194 -14.03069 -13.52240 -12.97478
 -12.24428 -11.75005 -11.68346  -9.92995  -8.97358   0.19518   0.41765   1.80961
   2.59703   3.99144   4.42277   4.61710   5.05769   5.10595   5.28176   5.28425
   5.44800   5.76374   5.85215   5.97150   6.09694   6.29422   6.35146   6.43156


              NET ATOMIC CHARGES AND DIPOLE CONTRIBUTIONS

  ATOM NO.   TYPE          CHARGE      No. of ELECS.   s-Pop       p-Pop       
    1          C          -0.202339        4.2023     1.08683     3.11550
    2          O          -0.320035        6.3200     1.86568     4.45435
    3          C           0.254484        3.7455     1.08733     2.65818
    4          C          -0.255026        4.2550     1.07675     3.17828
    5          C          -0.077428        4.0774     1.08485     2.99257
    6          C          -0.227021        4.2270     1.07669     3.15033
    7          C          -0.073602        4.0736     1.08436     2.98924
    8          C          -0.302617        4.3026     1.07438     3.22823
    9          H           0.134077        0.8659     0.86592
   10          H           0.134074        0.8659     0.86593
   11          H           0.153944        0.8461     0.84606
   12          H           0.171048        0.8290     0.82895
   13          H           0.149773        0.8502     0.85023
   14          H           0.153744        0.8463     0.84626
   15          H           0.146133        0.8539     0.85387
   16          H           0.160791        0.8392     0.83921
 DIPOLE           X         Y         Z       TOTAL
 POINT-CHG.    -0.592     1.277     0.129     1.414
 HYBRID        -0.252    -0.097    -0.045     0.274
 SUM           -0.844     1.180     0.084     1.453


          ATOMIC ORBITAL ELECTRON POPULATIONS

     Atom    s        px        py        pz   
    1  C   1.08683   0.94126   1.02963   1.14462
    2  O   1.86568   1.21837   1.37333   1.86266
    3  C   1.08733   0.80877   0.95713   0.89229
    4  C   1.07675   0.99363   1.07979   1.10486
    5  C   1.08485   1.01746   1.03021   0.94490
    6  C   1.07669   1.07753   0.99522   1.07758
    7  C   1.08436   0.97933   1.06321   0.94670
    8  C   1.07438   1.05030   1.04045   1.13747
    9  H   0.86592
   10  H   0.86593
   11  H   0.84606
   12  H   0.82895
   13  H   0.85023
   14  H   0.84626
   15  H   0.85387
   16  H   0.83921

 **********************
 *                    *
 * JOB ENDED NORMALLY *
 *                    *
 **********************



 TOTAL JOB TIME:             0.24 SECONDS

 == MOPAC DONE ==
