 *******************************************************************************
 **                                                                           **
 **                              MOPAC v23.0.3                                **
 **                                                                           **
 *******************************************************************************
 **          Digital Object Identifier (DOI): 10.5281/zenodo.6511958          **
 **    Visit the DOI location for information on how to cite this program.    **
 *******************************************************************************

                              PM7 CALCULATION RESULTS

 *******************************************************************************
 *  CALCULATION DONE:                                Fri Jul 25 15:23:40 2025  *
 *  PM7        - The PM7 Hamiltonian to be used
 *  XYZ        - CARTESIAN COORDINATE SYSTEM TO BE USED
 *  T=         - A TIME OF 172800.0 SECONDS REQUESTED
 *  DUMP=N     - RESTART FILE WRITTEN EVERY 7200.0 SECONDS REQUESTED
 *******************************************************************************
PM7 XYZ

 freesolv_344 - geometry optimisation
   ATOM   CHEMICAL          X               Y               Z
  NUMBER   SYMBOL      (ANGSTROMS)     (ANGSTROMS)     (ANGSTROMS)

     1       C         -2.95101500  *  -0.08256400  *  -0.16933300  *
     2       O         -1.72600100  *   0.19214300  *   0.47213600  *
     3       C         -0.66077600  *  -0.14906200  *  -0.38922000  *
     4       C          0.66077600  *   0.14906700  *   0.30738900  *
     5       O          1.72600000  *  -0.19213700  *  -0.55396900  *
     6       C          2.95101500  *   0.08256100  *   0.08750300  *
     7       H         -3.05042100  *  -1.16630200  *  -0.40184700  *
     8       H         -3.77841900  *   0.18982200  *   0.51754200  *
     9       H         -3.06764900  *   0.52601900  *  -1.09370100  *
    10       H         -0.68851900  *  -1.23476800  *  -0.63959400  *
    11       H         -0.70564600  *   0.44987700  *  -1.32808700  *
    12       H          0.70564600  *  -0.44987400  *   1.24625500  *
    13       H          0.68851900  *   1.23477300  *   0.55776400  *
    14       H          3.06764700  *  -0.52603000  *   1.01186400  *
    15       H          3.05042400  *   1.16629600  *   0.32002600  *
    16       H          3.77841800  *  -0.18982100  *  -0.59937400  *



          CARTESIAN COORDINATES 

    NO.       ATOM           X           Y           Z

     1         C         -2.9510     -0.0826     -0.1693
     2         O         -1.7260      0.1921      0.4721
     3         C         -0.6608     -0.1491     -0.3892
     4         C          0.6608      0.1491      0.3074
     5         O          1.7260     -0.1921     -0.5540
     6         C          2.9510      0.0826      0.0875
     7         H         -3.0504     -1.1663     -0.4018
     8         H         -3.7784      0.1898      0.5175
     9         H         -3.0676      0.5260     -1.0937
    10         H         -0.6885     -1.2348     -0.6396
    11         H         -0.7056      0.4499     -1.3281
    12         H          0.7056     -0.4499      1.2463
    13         H          0.6885      1.2348      0.5578
    14         H          3.0676     -0.5260      1.0119
    15         H          3.0504      1.1663      0.3200
    16         H          3.7784     -0.1898     -0.5994

 General Reference for PM7:
 "Optimization of Parameters for Semiempirical Methods VI: More Modifications to the 
 NDDO Approximations and Re-optimization of Parameters", J. J. P. Stewart, J. Mol. Mod., 1:32, 19 (2013)
 https://link.springer.com/article/10.1007/s00894-012-1667-x

           Empirical Formula: C4 H10 O2  =    16 atoms



      MOLECULAR POINT GROUP   :   C2h 


      RHF CALCULATION, NO. OF DOUBLY OCCUPIED LEVELS = 19


          Geometry optimization using EF

          DIAGONAL MATRIX USED AS START HESSIAN

 CYCLE:     1 TIME:   0.004 TIME LEFT:  2.00D  GRAD.:    71.885 HEAT: -80.48369
 CYCLE:     2 TIME:   0.008 TIME LEFT:  2.00D  GRAD.:    83.010 HEAT: -80.55452
 CYCLE:     3 TIME:   0.004 TIME LEFT:  2.00D  GRAD.:    36.908 HEAT: -82.86942
 CYCLE:     4 TIME:   0.004 TIME LEFT:  2.00D  GRAD.:    42.813 HEAT: -83.21365
 CYCLE:     5 TIME:   0.004 TIME LEFT:  2.00D  GRAD.:    46.719 HEAT: -83.26030
 CYCLE:     6 TIME:   0.004 TIME LEFT:  2.00D  GRAD.:    37.708 HEAT: -83.79822
 CYCLE:     7 TIME:   0.008 TIME LEFT:  2.00D  GRAD.:    15.996 HEAT: -84.30151
 CYCLE:     8 TIME:   0.008 TIME LEFT:  2.00D  GRAD.:    11.520 HEAT: -84.43998
 CYCLE:     9 TIME:   0.004 TIME LEFT:  2.00D  GRAD.:    13.232 HEAT: -84.48469
 CYCLE:    10 TIME:   0.004 TIME LEFT:  2.00D  GRAD.:     6.262 HEAT: -84.57833
 CYCLE:    11 TIME:   0.004 TIME LEFT:  2.00D  GRAD.:     5.117 HEAT: -84.65675
 CYCLE:    12 TIME:   0.004 TIME LEFT:  2.00D  GRAD.:     6.050 HEAT: -84.74667
 CYCLE:    13 TIME:   0.004 TIME LEFT:  2.00D  GRAD.:     3.980 HEAT: -84.76933
 CYCLE:    14 TIME:   0.008 TIME LEFT:  2.00D  GRAD.:     2.182 HEAT: -84.77350
 CYCLE:    15 TIME:   0.004 TIME LEFT:  2.00D  GRAD.:     4.974 HEAT: -84.76918
 CYCLE:    16 TIME:   0.004 TIME LEFT:  2.00D  GRAD.:     1.760 HEAT: -84.77784
 CYCLE:    17 TIME:   0.008 TIME LEFT:  2.00D  GRAD.:     5.547 HEAT: -84.76912
 CYCLE:    18 TIME:   0.000 TIME LEFT:  2.00D  GRAD.:     0.991 HEAT: -84.77911

     GRADIENT =  0.99136 IS LESS THAN CUTOFF =  1.00000



 -------------------------------------------------------------------------------
 PM7 XYZ

 freesolv_344 - geometry optimisation


     GEOMETRY OPTIMISED USING EIGENVECTOR FOLLOWING (EF).     
     SCF FIELD WAS ACHIEVED                                   


                              PM7 CALCULATION
                                                       MOPAC v23.0.3 Linux
                                                       Fri Jul 25 15:23:40 2025




          FINAL HEAT OF FORMATION =        -84.77911 KCAL/MOL =    -354.71580 KJ/MOL


          COSMO AREA              =        141.45 SQUARE ANGSTROMS
          COSMO VOLUME            =        125.13 CUBIC ANGSTROMS

          GRADIENT NORM           =          0.99136          =       0.24784 PER ATOM
          IONIZATION POTENTIAL    =          9.952242 EV
          HOMO LUMO ENERGIES (EV) =         -9.952  1.861
          NO. OF FILLED LEVELS    =         19
          MOLECULAR WEIGHT        =         90.1218         POINT GROUP:  C2h 

          MOLECULAR DIMENSIONS (Angstroms)

            Atom       Atom       Distance
            H    16    H     8     7.45467
            H    14    H     9     3.20036
            H    15    H     7     2.97941


          SCF CALCULATIONS        =         27

          WALL-CLOCK TIME         =      0.102 SECONDS
          COMPUTATION TIME        =      2.015 SECONDS




   ATOM   CHEMICAL          X               Y               Z
  NUMBER   SYMBOL      (ANGSTROMS)     (ANGSTROMS)     (ANGSTROMS)

     1       C         -2.96405009  *  -0.08167691  *  -0.16643181  *
     2       O         -1.69809283  *   0.16855557  *   0.41278975  *
     3       C         -0.62434282  *  -0.17520896  *  -0.45384005  *
     4       C          0.62413841  *   0.17474052  *   0.37165745  *
     5       O          1.69826852  *  -0.16777620  *  -0.49454072  *
     6       C          2.96392598  *   0.08155824  *   0.08483332  *
     7       H         -3.09283084  *  -1.14630742  *  -0.38431944  *
     8       H         -3.66076050  *   0.23358347  *   0.62069090  *
     9       H         -3.10988898  *   0.52247490  *  -1.06762561  *
    10       H         -0.65925530  *  -1.24935266  *  -0.69995243  *
    11       H         -0.67604214  *   0.41803310  *  -1.38198942  *
    12       H          0.67629801  *  -0.41872150  *   1.30023238  *
    13       H          0.65917691  *   1.24978486  *   0.61899983  *
    14       H          3.11005320  *  -0.52335012  *   0.98483701  *
    15       H          3.09314479  *   1.14595392  *   0.30332187  *
    16       H          3.66053495  *  -0.23315420  *  -0.70325933  *

                             CARTESIAN COORDINATES

   1    C       -2.964050086    -0.081676907    -0.166431808
   2    O       -1.698092831     0.168555568     0.412789746
   3    C       -0.624342823    -0.175208957    -0.453840050
   4    C        0.624138415     0.174740518     0.371657453
   5    O        1.698268515    -0.167776195    -0.494540725
   6    C        2.963925983     0.081558241     0.084833317
   7    H       -3.092830839    -1.146307417    -0.384319439
   8    H       -3.660760504     0.233583469     0.620690900
   9    H       -3.109888982     0.522474896    -1.067625609
  10    H       -0.659255300    -1.249352663    -0.699952427
  11    H       -0.676042140     0.418033100    -1.381989422
  12    H        0.676298010    -0.418721503     1.300232383
  13    H        0.659176914     1.249784861     0.618999825
  14    H        3.110053199    -0.523350117     0.984837015
  15    H        3.093144790     1.145953921     0.303321873
  16    H        3.660534949    -0.233154195    -0.703259331


           Empirical Formula: C4 H10 O2  =    16 atoms



      MOLECULAR POINT GROUP   :   C2h 


                  EIGENVALUES  
 -29.88852 -29.44338 -26.23965 -24.10481 -23.36808 -21.16343 -17.09924 -16.85022
 -15.81525 -15.52261 -15.46707 -14.27659 -14.08118 -12.51270 -12.34179 -12.20548
 -11.87034 -10.03348  -9.95224   1.86104   2.94163   3.72396   4.70647   4.91795
   5.41496   5.58736   5.59030   5.65765   5.67977   5.96657   5.99279   6.12818
   6.26620   6.31492


              NET ATOMIC CHARGES AND DIPOLE CONTRIBUTIONS

  ATOM NO.   TYPE          CHARGE      No. of ELECS.   s-Pop       p-Pop       
    1          C          -0.195884        4.1959     1.08128     3.11460
    2          O          -0.385082        6.3851     1.88142     4.50367
    3          C          -0.064808        4.0648     1.09033     2.97448
    4          C          -0.064832        4.0648     1.09052     2.97431
    5          O          -0.385280        6.3853     1.88119     4.50409
    6          C          -0.195752        4.1958     1.08122     3.11453
    7          H           0.121921        0.8781     0.87808
    8          H           0.145294        0.8547     0.85471
    9          H           0.121951        0.8780     0.87805
   10          H           0.128301        0.8717     0.87170
   11          H           0.128349        0.8717     0.87165
   12          H           0.128310        0.8717     0.87169
   13          H           0.128370        0.8716     0.87163
   14          H           0.121891        0.8781     0.87811
   15          H           0.121896        0.8781     0.87810
   16          H           0.145358        0.8546     0.85464
 DIPOLE           X         Y         Z       TOTAL
 POINT-CHG.     0.000    -0.001    -0.000     0.001
 HYBRID         0.000    -0.000     0.000     0.000
 SUM            0.001    -0.001    -0.000     0.001


          ATOMIC ORBITAL ELECTRON POPULATIONS

     Atom    s        px        py        pz   
    1  C   1.08128   0.87669   1.12833   1.10958
    2  O   1.88142   1.20204   1.88087   1.42075
    3  C   1.09033   0.86418   1.11461   0.99569
    4  C   1.09052   0.86400   1.11474   0.99557
    5  O   1.88119   1.20204   1.88145   1.42060
    6  C   1.08122   0.87656   1.12834   1.10963
    7  H   0.87808
    8  H   0.85471
    9  H   0.87805
   10  H   0.87170
   11  H   0.87165
   12  H   0.87169
   13  H   0.87163
   14  H   0.87811
   15  H   0.87810
   16  H   0.85464

 **********************
 *                    *
 * JOB ENDED NORMALLY *
 *                    *
 **********************



 TOTAL JOB TIME:             0.10 SECONDS

 == MOPAC DONE ==
