 *******************************************************************************
 **                                                                           **
 **                              MOPAC v23.0.3                                **
 **                                                                           **
 *******************************************************************************
 **          Digital Object Identifier (DOI): 10.5281/zenodo.6511958          **
 **    Visit the DOI location for information on how to cite this program.    **
 *******************************************************************************

                              PM7 CALCULATION RESULTS

 *******************************************************************************
 *  CALCULATION DONE:                                Fri Jul 25 15:24:55 2025  *
 *  PM7        - The PM7 Hamiltonian to be used
 *  XYZ        - CARTESIAN COORDINATE SYSTEM TO BE USED
 *  T=         - A TIME OF 172800.0 SECONDS REQUESTED
 *  DUMP=N     - RESTART FILE WRITTEN EVERY 7200.0 SECONDS REQUESTED
 *******************************************************************************
PM7 XYZ

 freesolv_51 - geometry optimisation
   ATOM   CHEMICAL          X               Y               Z
  NUMBER   SYMBOL      (ANGSTROMS)     (ANGSTROMS)     (ANGSTROMS)

     1       C         -2.59692000  *   0.92634500  *  -0.98565600  *
     2       C         -2.49177600  *   1.16811400  *   0.38578300  *
     3       C         -1.40460900  *   0.66202900  *   1.10456200  *
     4       C         -0.41050200  *  -0.08724500  *   0.46082000  *
     5       C         -0.52674900  *  -0.33166000  *  -0.92343100  *
     6       C         -1.61591900  *   0.17671400  *  -1.63891600  *
     7       O          0.65533700  *  -0.57208100  *   1.23780500  *
     8       C          1.82486400  *  -1.23079200  *   0.74730500  *
     9       C          2.84356600  *  -0.21596100  *   0.22770800  *
    10       F          3.15321200  *   0.69445200  *   1.22215500  *
    11       F          2.34728300  *   0.46158500  *  -0.86992100  *
    12       F          2.39799800  *  -1.93502600  *   1.79049200  *
    13       H         -3.43883400  *   1.31819700  *  -1.54163900  *
    14       H         -3.25274200  *   1.74743000  *   0.89256900  *
    15       H         -1.33205700  *   0.85447900  *   2.16754400  *
    16       H          0.21008300  *  -0.91112900  *  -1.45942200  *
    17       H         -1.70003400  *  -0.01226400  *  -2.70140600  *
    18       H          1.56667000  *  -1.96663000  *  -0.04207700  *
    19       H          3.77112800  *  -0.74655700  *  -0.07427600  *



          CARTESIAN COORDINATES 

    NO.       ATOM           X           Y           Z

     1         C         -2.5969      0.9263     -0.9857
     2         C         -2.4918      1.1681      0.3858
     3         C         -1.4046      0.6620      1.1046
     4         C         -0.4105     -0.0872      0.4608
     5         C         -0.5267     -0.3317     -0.9234
     6         C         -1.6159      0.1767     -1.6389
     7         O          0.6553     -0.5721      1.2378
     8         C          1.8249     -1.2308      0.7473
     9         C          2.8436     -0.2160      0.2277
    10         F          3.1532      0.6945      1.2222
    11         F          2.3473      0.4616     -0.8699
    12         F          2.3980     -1.9350      1.7905
    13         H         -3.4388      1.3182     -1.5416
    14         H         -3.2527      1.7474      0.8926
    15         H         -1.3321      0.8545      2.1675
    16         H          0.2101     -0.9111     -1.4594
    17         H         -1.7000     -0.0123     -2.7014
    18         H          1.5667     -1.9666     -0.0421
    19         H          3.7711     -0.7466     -0.0743

 General Reference for PM7:
 "Optimization of Parameters for Semiempirical Methods VI: More Modifications to the 
 NDDO Approximations and Re-optimization of Parameters", J. J. P. Stewart, J. Mol. Mod., 1:32, 19 (2013)
 https://link.springer.com/article/10.1007/s00894-012-1667-x

           Empirical Formula: C8 H7 O F3  =    19 atoms



      MOLECULAR POINT GROUP   :   C1  


      RHF CALCULATION, NO. OF DOUBLY OCCUPIED LEVELS = 33


          Geometry optimization using EF

          DIAGONAL MATRIX USED AS START HESSIAN

 CYCLE:     1 TIME:   0.012 TIME LEFT:  2.00D  GRAD.:   122.849 HEAT: -146.5414
 CYCLE:     2 TIME:   0.012 TIME LEFT:  2.00D  GRAD.:    94.856 HEAT: -151.2961
 CYCLE:     3 TIME:   0.008 TIME LEFT:  2.00D  GRAD.:    55.887 HEAT: -155.0541
 CYCLE:     4 TIME:   0.016 TIME LEFT:  2.00D  GRAD.:    84.371 HEAT: -155.3982
 CYCLE:     5 TIME:   0.008 TIME LEFT:  2.00D  GRAD.:    51.817 HEAT: -156.9740
 CYCLE:     6 TIME:   0.016 TIME LEFT:  2.00D  GRAD.:    46.703 HEAT: -157.5813
 CYCLE:     7 TIME:   0.004 TIME LEFT:  2.00D  GRAD.:    52.511 HEAT: -157.7664
 CYCLE:     8 TIME:   0.012 TIME LEFT:  2.00D  GRAD.:    37.682 HEAT: -158.4030
 CYCLE:     9 TIME:   0.004 TIME LEFT:  2.00D  GRAD.:    49.077 HEAT: -158.4705
 CYCLE:    10 TIME:   0.016 TIME LEFT:  2.00D  GRAD.:    25.961 HEAT: -158.9451
 CYCLE:    11 TIME:   0.008 TIME LEFT:  2.00D  GRAD.:    11.629 HEAT: -159.1320
 CYCLE:    12 TIME:   0.008 TIME LEFT:  2.00D  GRAD.:    23.395 HEAT: -159.1754
 CYCLE:    13 TIME:   0.004 TIME LEFT:  2.00D  GRAD.:    10.880 HEAT: -159.3715
 CYCLE:    14 TIME:   0.004 TIME LEFT:  2.00D  GRAD.:    21.910 HEAT: -159.3792
 CYCLE:    15 TIME:   0.016 TIME LEFT:  2.00D  GRAD.:    21.709 HEAT: -159.4803
 CYCLE:    16 TIME:   0.023 TIME LEFT:  2.00D  GRAD.:    16.376 HEAT: -159.5435
 CYCLE:    17 TIME:   0.023 TIME LEFT:  2.00D  GRAD.:     5.680 HEAT: -159.6019
 CYCLE:    18 TIME:   0.023 TIME LEFT:  2.00D  GRAD.:     5.659 HEAT: -159.6116
 CYCLE:    19 TIME:   0.012 TIME LEFT:  2.00D  GRAD.:     3.652 HEAT: -159.6251
 CYCLE:    20 TIME:   0.012 TIME LEFT:  2.00D  GRAD.:     6.629 HEAT: -159.6320
 CYCLE:    21 TIME:   0.016 TIME LEFT:  2.00D  GRAD.:     4.139 HEAT: -159.6495
 CYCLE:    22 TIME:   0.012 TIME LEFT:  2.00D  GRAD.:     7.667 HEAT: -159.6555
 CYCLE:    23 TIME:   0.012 TIME LEFT:  2.00D  GRAD.:     7.269 HEAT: -159.6720
 CYCLE:    24 TIME:   0.012 TIME LEFT:  2.00D  GRAD.:     5.655 HEAT: -159.6826
 CYCLE:    25 TIME:   0.012 TIME LEFT:  2.00D  GRAD.:     4.585 HEAT: -159.6904
 CYCLE:    26 TIME:   0.008 TIME LEFT:  2.00D  GRAD.:     3.039 HEAT: -159.7008
 CYCLE:    27 TIME:   0.012 TIME LEFT:  2.00D  GRAD.:     4.538 HEAT: -159.7082
 CYCLE:    28 TIME:   0.012 TIME LEFT:  2.00D  GRAD.:     1.961 HEAT: -159.7250
 CYCLE:    29 TIME:   0.016 TIME LEFT:  2.00D  GRAD.:     2.272 HEAT: -159.7409
 CYCLE:    30 TIME:   0.016 TIME LEFT:  2.00D  GRAD.:     3.574 HEAT: -159.7708
 CYCLE:    31 TIME:   0.016 TIME LEFT:  2.00D  GRAD.:     4.568 HEAT: -159.8250
 CYCLE:    32 TIME:   0.012 TIME LEFT:  2.00D  GRAD.:     6.068 HEAT: -159.9211
 CYCLE:    33 TIME:   0.016 TIME LEFT:  2.00D  GRAD.:     5.457 HEAT: -160.0309
 CYCLE:    34 TIME:   0.016 TIME LEFT:  2.00D  GRAD.:    12.387 HEAT: -160.0531
 CYCLE:    35 TIME:   0.016 TIME LEFT:  2.00D  GRAD.:     8.067 HEAT: -160.1444
 CYCLE:    36 TIME:   0.047 TIME LEFT:  2.00D  GRAD.:     5.968 HEAT: -160.1659
 CYCLE:    37 TIME:   0.012 TIME LEFT:  2.00D  GRAD.:     2.473 HEAT: -160.1967
 CYCLE:    38 TIME:   0.016 TIME LEFT:  2.00D  GRAD.:     2.545 HEAT: -160.2177
 CYCLE:    39 TIME:   0.016 TIME LEFT:  2.00D  GRAD.:     3.177 HEAT: -160.2531
 CYCLE:    40 TIME:   0.012 TIME LEFT:  2.00D  GRAD.:     2.485 HEAT: -160.2972
 CYCLE:    41 TIME:   0.020 TIME LEFT:  2.00D  GRAD.:     5.065 HEAT: -160.3507
 CYCLE:    42 TIME:   0.012 TIME LEFT:  2.00D  GRAD.:     9.097 HEAT: -160.3978
 CYCLE:    43 TIME:   0.016 TIME LEFT:  2.00D  GRAD.:     4.440 HEAT: -160.4701
 CYCLE:    44 TIME:   0.016 TIME LEFT:  2.00D  GRAD.:    11.246 HEAT: -160.5650
 CYCLE:    45 TIME:   0.016 TIME LEFT:  2.00D  GRAD.:     7.901 HEAT: -160.6474
 CYCLE:    46 TIME:   0.016 TIME LEFT:  2.00D  GRAD.:     9.944 HEAT: -160.8433
 CYCLE:    47 TIME:   0.027 TIME LEFT:  2.00D  GRAD.:    13.225 HEAT: -160.9684
 CYCLE:    48 TIME:   0.016 TIME LEFT:  2.00D  GRAD.:    24.180 HEAT: -161.0338
 CYCLE:    49 TIME:   0.039 TIME LEFT:  2.00D  GRAD.:    19.818 HEAT: -161.2066
 CYCLE:    50 TIME:   0.016 TIME LEFT:  2.00D  GRAD.:    12.153 HEAT: -161.3698
 CYCLE:    51 TIME:   0.016 TIME LEFT:  2.00D  GRAD.:     8.419 HEAT: -161.5234
 CYCLE:    52 TIME:   0.012 TIME LEFT:  2.00D  GRAD.:    11.463 HEAT: -161.6752
 CYCLE:    53 TIME:   0.016 TIME LEFT:  2.00D  GRAD.:    12.822 HEAT: -161.7812
 CYCLE:    54 TIME:   0.016 TIME LEFT:  2.00D  GRAD.:    12.416 HEAT: -161.8931
 CYCLE:    55 TIME:   0.016 TIME LEFT:  2.00D  GRAD.:    10.114 HEAT: -161.9249
 CYCLE:    56 TIME:   0.016 TIME LEFT:  2.00D  GRAD.:     7.267 HEAT: -161.9959
 CYCLE:    57 TIME:   0.016 TIME LEFT:  2.00D  GRAD.:     7.566 HEAT: -162.0411
 CYCLE:    58 TIME:   0.016 TIME LEFT:  2.00D  GRAD.:     7.667 HEAT: -162.1054
 CYCLE:    59 TIME:   0.016 TIME LEFT:  2.00D  GRAD.:    12.653 HEAT: -162.1932
 CYCLE:    60 TIME:   0.012 TIME LEFT:  2.00D  GRAD.:    14.186 HEAT: -162.2232
 CYCLE:    61 TIME:   0.016 TIME LEFT:  2.00D  GRAD.:    10.945 HEAT: -162.3093
 CYCLE:    62 TIME:   0.012 TIME LEFT:  2.00D  GRAD.:    12.577 HEAT: -162.3401
 CYCLE:    63 TIME:   0.016 TIME LEFT:  2.00D  GRAD.:     8.040 HEAT: -162.4194
 CYCLE:    64 TIME:   0.016 TIME LEFT:  2.00D  GRAD.:     7.934 HEAT: -162.4255
 CYCLE:    65 TIME:   0.016 TIME LEFT:  2.00D  GRAD.:     5.194 HEAT: -162.4622
 CYCLE:    66 TIME:   0.016 TIME LEFT:  2.00D  GRAD.:     6.455 HEAT: -162.4766
 CYCLE:    67 TIME:   0.016 TIME LEFT:  2.00D  GRAD.:     2.331 HEAT: -162.4935
 CYCLE:    68 TIME:   0.016 TIME LEFT:  2.00D  GRAD.:     2.014 HEAT: -162.5026
 CYCLE:    69 TIME:   0.016 TIME LEFT:  2.00D  GRAD.:     4.746 HEAT: -162.5099
 CYCLE:    70 TIME:   0.012 TIME LEFT:  2.00D  GRAD.:     3.003 HEAT: -162.5193
 CYCLE:    71 TIME:   0.016 TIME LEFT:  2.00D  GRAD.:     2.152 HEAT: -162.5191
 CYCLE:    72 TIME:   0.016 TIME LEFT:  2.00D  GRAD.:     0.971 HEAT: -162.5234

     GRADIENT =  0.97143 IS LESS THAN CUTOFF =  1.00000



 -------------------------------------------------------------------------------
 PM7 XYZ

 freesolv_51 - geometry optimisation


     GEOMETRY OPTIMISED USING EIGENVECTOR FOLLOWING (EF).     
     SCF FIELD WAS ACHIEVED                                   


                              PM7 CALCULATION
                                                       MOPAC v23.0.3 Linux
                                                       Fri Jul 25 15:24:56 2025




          FINAL HEAT OF FORMATION =       -162.52337 KCAL/MOL =    -679.99777 KJ/MOL


          COSMO AREA              =        187.90 SQUARE ANGSTROMS
          COSMO VOLUME            =        187.59 CUBIC ANGSTROMS

          GRADIENT NORM           =          0.97143          =       0.22286 PER ATOM
          IONIZATION POTENTIAL    =          9.584242 EV
          HOMO LUMO ENERGIES (EV) =         -9.584 -0.110
          NO. OF FILLED LEVELS    =         33
          MOLECULAR WEIGHT        =        176.1379         POINT GROUP:  C1  

          MOLECULAR DIMENSIONS (Angstroms)

            Atom       Atom       Distance
            H    19    H    13     8.31892
            H    17    H    15     4.55442
            F    12    F    11     3.16111


          SCF CALCULATIONS        =         88

          WALL-CLOCK TIME         =      1.086 SECONDS
          COMPUTATION TIME        =      3.184 SECONDS




   ATOM   CHEMICAL          X               Y               Z
  NUMBER   SYMBOL      (ANGSTROMS)     (ANGSTROMS)     (ANGSTROMS)

     1       C         -3.00007736  *   0.37768931  *  -0.56370321  *
     2       C         -2.52760284  *   0.99576623  *   0.59610279  *
     3       C         -1.17909899  *   0.92731960  *   0.92826482  *
     4       C         -0.32011886  *   0.23670369  *   0.06913450  *
     5       C         -0.76445509  *  -0.38014762  *  -1.09760327  *
     6       C         -2.12267420  *  -0.30494930  *  -1.40379098  *
     7       O          1.00706597  *   0.31173278  *   0.43142730  *
     8       C          1.77086137  *  -0.84850179  *   0.27037340  *
     9       C          3.21904711  *  -0.40807050  *   0.65575597  *
    10       F          3.18124780  *   0.40754045  *   1.71747817  *
    11       F          3.68601248  *   0.38711409  *  -0.32059003  *
    12       F          1.33966408  *  -1.73897337  *   1.18763718  *
    13       H         -4.05779940  *   0.43033938  *  -0.81230077  *
    14       H         -3.21939370  *   1.52991552  *   1.24712717  *
    15       H         -0.78728760  *   1.39401272  *   1.82997266  *
    16       H         -0.08130210  *  -0.89566546  *  -1.76341362  *
    17       H         -2.49674470  *  -0.78202442  *  -2.30860885  *
    18       H          1.69672461  *  -1.28729279  *  -0.75622999  *
    19       H          3.91465712  *  -1.28080522  *   0.83581783  *

                             CARTESIAN COORDINATES

   1    C       -3.000077361     0.377689313    -0.563703210
   2    C       -2.527602841     0.995766232     0.596102789
   3    C       -1.179098994     0.927319595     0.928264824
   4    C       -0.320118859     0.236703688     0.069134500
   5    C       -0.764455092    -0.380147618    -1.097603267
   6    C       -2.122674198    -0.304949299    -1.403790976
   7    O        1.007065969     0.311732780     0.431427296
   8    C        1.770861366    -0.848501790     0.270373400
   9    C        3.219047114    -0.408070500     0.655755974
  10    F        3.181247797     0.407540452     1.717478165
  11    F        3.686012477     0.387114094    -0.320590026
  12    F        1.339664075    -1.738973367     1.187637183
  13    H       -4.057799405     0.430339377    -0.812300766
  14    H       -3.219393695     1.529915522     1.247127174
  15    H       -0.787287597     1.394012724     1.829972665
  16    H       -0.081302105    -0.895665464    -1.763413616
  17    H       -2.496744696    -0.782024415    -2.308608849
  18    H        1.696724613    -1.287292787    -0.756229989
  19    H        3.914657116    -1.280805224     0.835817825


           Empirical Formula: C8 H7 O F3  =    19 atoms



      MOLECULAR POINT GROUP   :   C1  


                  EIGENVALUES  
 -41.55271 -41.26949 -41.11308 -31.20495 -30.48611 -27.14351 -26.20058 -25.46947
 -22.67461 -21.29440 -21.08545 -19.38278 -18.63822 -18.33674 -18.07901 -17.22600
 -17.04142 -16.41178 -16.28224 -15.97801 -15.55306 -15.27545 -15.14253 -14.77847
 -14.59040 -14.44683 -13.41172 -12.99394 -12.59411 -12.39617 -11.71047 -10.18675
  -9.58424  -0.10983  -0.01326   1.14937   1.85740   2.00955   2.29712   2.71706
   2.92570   3.68518   4.01119   4.08188   4.10285   4.41120   4.75055   4.80283
   5.05615   5.45434   5.60764   5.85403   5.93833   6.04010   6.14006


              NET ATOMIC CHARGES AND DIPOLE CONTRIBUTIONS

  ATOM NO.   TYPE          CHARGE      No. of ELECS.   s-Pop       p-Pop       
    1          C          -0.193554        4.1936     1.08052     3.11303
    2          C          -0.095297        4.0953     1.08532     3.00998
    3          C          -0.211204        4.2112     1.08220     3.12901
    4          C           0.232009        3.7680     1.08323     2.68476
    5          C          -0.261190        4.2612     1.07758     3.18361
    6          C          -0.091654        4.0917     1.08380     3.00786
    7          O          -0.347384        6.3474     1.86453     4.48285
    8          C           0.214610        3.7854     1.14738     2.63801
    9          C           0.220036        3.7800     1.16241     2.61755
   10          F          -0.170787        7.1708     1.96881     5.20198
   11          F          -0.192205        7.1922     1.96893     5.22327
   12          F          -0.212280        7.2123     1.96964     5.24264
   13          H           0.155047        0.8450     0.84495
   14          H           0.154843        0.8452     0.84516
   15          H           0.178025        0.8220     0.82197
   16          H           0.159564        0.8404     0.84044
   17          H           0.150441        0.8496     0.84956
   18          H           0.149480        0.8505     0.85052
   19          H           0.161500        0.8385     0.83850
 DIPOLE           X         Y         Z       TOTAL
 POINT-CHG.    -0.853    -2.136    -1.717     2.871
 HYBRID         0.221     0.278     0.214     0.415
 SUM           -0.632    -1.858    -1.503     2.472


          ATOMIC ORBITAL ELECTRON POPULATIONS

     Atom    s        px        py        pz   
    1  C   1.08052   1.08003   1.02488   1.00812
    2  C   1.08532   1.01306   0.98725   1.00966
    3  C   1.08220   0.99385   1.06291   1.07225
    4  C   1.08323   0.78546   0.95727   0.94203
    5  C   1.07758   1.04393   1.09920   1.04049
    6  C   1.08380   0.98172   0.98338   1.04276
    7  O   1.86453   1.28141   1.36369   1.83775
    8  C   1.14738   0.88666   0.79874   0.95261
    9  C   1.16241   0.95868   0.89867   0.76020
   10  F   1.96881   1.98200   1.70551   1.51447
   11  F   1.96893   1.89549   1.72862   1.59916
   12  F   1.96964   1.90612   1.67040   1.66612
   13  H   0.84495
   14  H   0.84516
   15  H   0.82197
   16  H   0.84044
   17  H   0.84956
   18  H   0.85052
   19  H   0.83850

 **********************
 *                    *
 * JOB ENDED NORMALLY *
 *                    *
 **********************



 TOTAL JOB TIME:             1.09 SECONDS

 == MOPAC DONE ==
