 *******************************************************************************
 **                                                                           **
 **                              MOPAC v23.0.3                                **
 **                                                                           **
 *******************************************************************************
 **          Digital Object Identifier (DOI): 10.5281/zenodo.6511958          **
 **    Visit the DOI location for information on how to cite this program.    **
 *******************************************************************************

                              PM7 CALCULATION RESULTS

 *******************************************************************************
 *  CALCULATION DONE:                                Fri Jul 25 15:24:51 2025  *
 *  PM7        - The PM7 Hamiltonian to be used
 *  XYZ        - CARTESIAN COORDINATE SYSTEM TO BE USED
 *  T=         - A TIME OF 172800.0 SECONDS REQUESTED
 *  DUMP=N     - RESTART FILE WRITTEN EVERY 7200.0 SECONDS REQUESTED
 *******************************************************************************
PM7 XYZ

 freesolv_453 - geometry optimisation
   ATOM   CHEMICAL          X               Y               Z
  NUMBER   SYMBOL      (ANGSTROMS)     (ANGSTROMS)     (ANGSTROMS)

     1       C         -1.60092300  *   0.62976500  *  -0.06659400  *
     2       C         -0.76995700  *  -0.48985400  *   0.55950100  *
     3       C          0.41048300  *  -0.90595500  *  -0.32704000  *
     4       C          1.44930200  *   0.17027600  *  -0.40660200  *
     5       O          1.52226300  *   0.90481900  *  -1.42790900  *
     6       O          2.31544700  *   0.37715600  *   0.66238000  *
     7       H         -1.97616200  *   0.32068600  *  -1.06535900  *
     8       H         -0.99467800  *   1.55410600  *  -0.17115300  *
     9       H         -2.47151400  *   0.85343700  *   0.58527400  *
    10       H         -0.40163600  *  -0.16615200  *   1.55760500  *
    11       H         -1.42745700  *  -1.37295400  *   0.71206000  *
    12       H          0.87962600  *  -1.81601000  *   0.10438100  *
    13       H          0.04940200  *  -1.16760800  *  -1.34589000  *
    14       H          3.01580400  *   1.10829000  *   0.62934600  *



          CARTESIAN COORDINATES 

    NO.       ATOM           X           Y           Z

     1         C         -1.6009      0.6298     -0.0666
     2         C         -0.7700     -0.4899      0.5595
     3         C          0.4105     -0.9060     -0.3270
     4         C          1.4493      0.1703     -0.4066
     5         O          1.5223      0.9048     -1.4279
     6         O          2.3154      0.3772      0.6624
     7         H         -1.9762      0.3207     -1.0654
     8         H         -0.9947      1.5541     -0.1712
     9         H         -2.4715      0.8534      0.5853
    10         H         -0.4016     -0.1662      1.5576
    11         H         -1.4275     -1.3730      0.7121
    12         H          0.8796     -1.8160      0.1044
    13         H          0.0494     -1.1676     -1.3459
    14         H          3.0158      1.1083      0.6293

 General Reference for PM7:
 "Optimization of Parameters for Semiempirical Methods VI: More Modifications to the 
 NDDO Approximations and Re-optimization of Parameters", J. J. P. Stewart, J. Mol. Mod., 1:32, 19 (2013)
 https://link.springer.com/article/10.1007/s00894-012-1667-x

           Empirical Formula: C4 H8 O2  =    14 atoms



      MOLECULAR POINT GROUP   :   C1  


      RHF CALCULATION, NO. OF DOUBLY OCCUPIED LEVELS = 18


          Geometry optimization using EF

          DIAGONAL MATRIX USED AS START HESSIAN

 CYCLE:     1 TIME:   0.008 TIME LEFT:  2.00D  GRAD.:   155.306 HEAT: -102.5491
 CYCLE:     2 TIME:   0.012 TIME LEFT:  2.00D  GRAD.:    51.025 HEAT: -106.7046
 CYCLE:     3 TIME:   0.004 TIME LEFT:  2.00D  GRAD.:    44.364 HEAT: -108.6350
 CYCLE:     4 TIME:   0.008 TIME LEFT:  2.00D  GRAD.:    48.541 HEAT: -109.8107
 CYCLE:     5 TIME:   0.008 TIME LEFT:  2.00D  GRAD.:    24.481 HEAT: -110.5078
 CYCLE:     6 TIME:   0.008 TIME LEFT:  2.00D  GRAD.:    19.288 HEAT: -110.7500
 CYCLE:     7 TIME:   0.004 TIME LEFT:  2.00D  GRAD.:    17.140 HEAT: -110.8875
 CYCLE:     8 TIME:   0.004 TIME LEFT:  2.00D  GRAD.:    14.800 HEAT: -111.0059
 CYCLE:     9 TIME:   0.008 TIME LEFT:  2.00D  GRAD.:     9.618 HEAT: -111.0733
 CYCLE:    10 TIME:   0.004 TIME LEFT:  2.00D  GRAD.:    15.119 HEAT: -111.0740
 CYCLE:    11 TIME:   0.000 TIME LEFT:  2.00D  GRAD.:    10.175 HEAT: -111.1434
 CYCLE:    12 TIME:   0.008 TIME LEFT:  2.00D  GRAD.:     6.622 HEAT: -111.1811
 CYCLE:    13 TIME:   0.004 TIME LEFT:  2.00D  GRAD.:     6.548 HEAT: -111.1923
 CYCLE:    14 TIME:   0.004 TIME LEFT:  2.00D  GRAD.:     6.523 HEAT: -111.2113
 CYCLE:    15 TIME:   0.004 TIME LEFT:  2.00D  GRAD.:     6.048 HEAT: -111.2243
 CYCLE:    16 TIME:   0.004 TIME LEFT:  2.00D  GRAD.:     7.948 HEAT: -111.2369
 CYCLE:    17 TIME:   0.004 TIME LEFT:  2.00D  GRAD.:     7.958 HEAT: -111.2393
 CYCLE:    18 TIME:   0.000 TIME LEFT:  2.00D  GRAD.:     9.406 HEAT: -111.2400
 CYCLE:    19 TIME:   0.008 TIME LEFT:  2.00D  GRAD.:     3.895 HEAT: -111.2680
 CYCLE:    20 TIME:   0.004 TIME LEFT:  2.00D  GRAD.:     3.595 HEAT: -111.2723
 CYCLE:    21 TIME:   0.004 TIME LEFT:  2.00D  GRAD.:     2.138 HEAT: -111.2773
 CYCLE:    22 TIME:   0.004 TIME LEFT:  2.00D  GRAD.:     6.597 HEAT: -111.2765
 CYCLE:    23 TIME:   0.004 TIME LEFT:  2.00D  GRAD.:     2.969 HEAT: -111.2877
 CYCLE:    24 TIME:   0.008 TIME LEFT:  2.00D  GRAD.:     3.476 HEAT: -111.2880
 CYCLE:    25 TIME:   0.004 TIME LEFT:  2.00D  GRAD.:     1.725 HEAT: -111.2933
 CYCLE:    26 TIME:   0.008 TIME LEFT:  2.00D  GRAD.:     3.873 HEAT: -111.2923
 CYCLE:    27 TIME:   0.004 TIME LEFT:  2.00D  GRAD.:     0.841 HEAT: -111.2975

     GRADIENT =  0.84092 IS LESS THAN CUTOFF =  1.00000



 -------------------------------------------------------------------------------
 PM7 XYZ

 freesolv_453 - geometry optimisation


     GEOMETRY OPTIMISED USING EIGENVECTOR FOLLOWING (EF).     
     SCF FIELD WAS ACHIEVED                                   


                              PM7 CALCULATION
                                                       MOPAC v23.0.3 Linux
                                                       Fri Jul 25 15:24:51 2025




          FINAL HEAT OF FORMATION =       -111.29753 KCAL/MOL =    -465.66886 KJ/MOL


          COSMO AREA              =        128.17 SQUARE ANGSTROMS
          COSMO VOLUME            =        117.22 CUBIC ANGSTROMS

          GRADIENT NORM           =          0.84092          =       0.22474 PER ATOM
          IONIZATION POTENTIAL    =         11.068091 EV
          HOMO LUMO ENERGIES (EV) =        -11.068  0.937
          NO. OF FILLED LEVELS    =         18
          MOLECULAR WEIGHT        =         88.1060         POINT GROUP:  C1  

          MOLECULAR DIMENSIONS (Angstroms)

            Atom       Atom       Distance
            H    14    H     9     5.28939
            H     8    H    12     3.41089
            H    13    H    10     2.97581


          SCF CALCULATIONS        =         38

          WALL-CLOCK TIME         =      0.168 SECONDS
          COMPUTATION TIME        =      2.253 SECONDS




   ATOM   CHEMICAL          X               Y               Z
  NUMBER   SYMBOL      (ANGSTROMS)     (ANGSTROMS)     (ANGSTROMS)

     1       C         -1.56670392  *   0.62203029  *  -0.07474652  *
     2       C         -0.73333380  *  -0.47580604  *   0.58182571  *
     3       C          0.43520929  *  -0.91699344  *  -0.31143814  *
     4       C          1.41109480  *   0.20611930  *  -0.46412501  *
     5       O          1.55315557  *   0.96755518  *  -1.38356910  *
     6       O          2.20705488  *   0.29929488  *   0.63595554  *
     7       H         -1.95086214  *   0.31114998  *  -1.05321873  *
     8       H         -0.97983905  *   1.53531516  *  -0.23715161  *
     9       H         -2.42790053  *   0.89294163  *   0.54633306  *
    10       H         -0.34593531  *  -0.12777275  *   1.56152114  *
    11       H         -1.37264876  *  -1.35214456  *   0.80644494  *
    12       H          0.93581985  *  -1.80568780  *   0.12857777  *
    13       H          0.06623649  *  -1.22676103  *  -1.31237471  *
    14       H          2.85927354  *   1.03959322  *   0.59054473  *

                             CARTESIAN COORDINATES

   1    C       -1.566703921     0.622030288    -0.074746523
   2    C       -0.733333799    -0.475806038     0.581825709
   3    C        0.435209287    -0.916993436    -0.311438138
   4    C        1.411094801     0.206119301    -0.464125005
   5    O        1.553155572     0.967555180    -1.383569103
   6    O        2.207054879     0.299294879     0.635955543
   7    H       -1.950862136     0.311149976    -1.053218726
   8    H       -0.979839054     1.535315159    -0.237151614
   9    H       -2.427900533     0.892941626     0.546333059
  10    H       -0.345935311    -0.127772746     1.561521139
  11    H       -1.372648761    -1.352144564     0.806444937
  12    H        0.935819846    -1.805687797     0.128577772
  13    H        0.066236493    -1.226761029    -1.312374705
  14    H        2.859273543     1.039593222     0.590544734


           Empirical Formula: C4 H8 O2  =    14 atoms



      MOLECULAR POINT GROUP   :   C1  


                  EIGENVALUES  
 -31.57550 -29.83489 -28.89326 -25.18182 -21.73149 -20.04874 -17.47900 -16.72267
 -15.97136 -15.49978 -14.55416 -13.99244 -13.54165 -12.57870 -12.47440 -12.15686
 -11.98599 -11.06809   0.93689   2.05579   3.37248   3.65293   4.08097   4.64907
   5.00949   5.21484   5.53549   5.62946   5.81276   5.88319   6.16599   6.84390


              NET ATOMIC CHARGES AND DIPOLE CONTRIBUTIONS

  ATOM NO.   TYPE          CHARGE      No. of ELECS.   s-Pop       p-Pop       
    1          C          -0.444591        4.4446     1.05234     3.39225
    2          C          -0.230128        4.2301     1.05377     3.17636
    3          C          -0.345609        4.3456     1.06800     3.27761
    4          C           0.652355        3.3476     1.12041     2.22724
    5          O          -0.511706        6.5117     1.87614     4.63557
    6          O          -0.567576        6.5676     1.83912     4.72846
    7          H           0.149224        0.8508     0.85078
    8          H           0.154999        0.8450     0.84500
    9          H           0.145265        0.8547     0.85473
   10          H           0.150773        0.8492     0.84923
   11          H           0.141827        0.8582     0.85817
   12          H           0.175284        0.8247     0.82472
   13          H           0.176867        0.8231     0.82313
   14          H           0.353015        0.6470     0.64698
 DIPOLE           X         Y         Z       TOTAL
 POINT-CHG.    -1.294    -1.653     1.371     2.507
 HYBRID         0.474     0.439    -0.069     0.650
 SUM           -0.820    -1.213     1.302     1.960


          ATOMIC ORBITAL ELECTRON POPULATIONS

     Atom    s        px        py        pz   
    1  C   1.05234   1.13414   1.10663   1.15148
    2  C   1.05377   1.02112   1.08588   1.06936
    3  C   1.06800   1.05083   1.07137   1.15541
    4  C   1.12041   0.73357   0.77897   0.71470
    5  O   1.87614   1.69997   1.49111   1.44449
    6  O   1.83912   1.56899   1.61614   1.54333
    7  H   0.85078
    8  H   0.84500
    9  H   0.85473
   10  H   0.84923
   11  H   0.85817
   12  H   0.82472
   13  H   0.82313
   14  H   0.64698

 **********************
 *                    *
 * JOB ENDED NORMALLY *
 *                    *
 **********************



 TOTAL JOB TIME:             0.17 SECONDS

 == MOPAC DONE ==
