 *******************************************************************************
 **                                                                           **
 **                              MOPAC v23.0.3                                **
 **                                                                           **
 *******************************************************************************
 **          Digital Object Identifier (DOI): 10.5281/zenodo.6511958          **
 **    Visit the DOI location for information on how to cite this program.    **
 *******************************************************************************

                              PM7 CALCULATION RESULTS

 *******************************************************************************
 *  CALCULATION DONE:                                Fri Jul 25 15:25:20 2025  *
 *  PM7        - The PM7 Hamiltonian to be used
 *  XYZ        - CARTESIAN COORDINATE SYSTEM TO BE USED
 *  T=         - A TIME OF 172800.0 SECONDS REQUESTED
 *  DUMP=N     - RESTART FILE WRITTEN EVERY 7200.0 SECONDS REQUESTED
 *******************************************************************************
PM7 XYZ

 freesolv_95 - geometry optimisation
   ATOM   CHEMICAL          X               Y               Z
  NUMBER   SYMBOL      (ANGSTROMS)     (ANGSTROMS)     (ANGSTROMS)

     1       C          2.03870900  *  -0.45875300  *   0.07342600  *
     2       C          0.58081200  *  -0.13109600  *   0.02076600  *
     3       C          0.14870200  *   1.20079600  *  -0.01971200  *
     4       N         -1.18265200  *   1.47047100  *  -0.06699300  *
     5       C         -2.10351700  *   0.47114800  *  -0.07569500  *
     6       C         -1.67530700  *  -0.85714800  *  -0.03532400  *
     7       N         -0.34456500  *  -1.12884500  *   0.01198300  *
     8       H          2.54791000  *  -0.04850400  *  -0.82390200  *
     9       H          2.19075300  *  -1.55873000  *   0.09858700  *
    10       H          2.48998600  *  -0.01505600  *   0.98570800  *
    11       H          0.86197000  *   2.01503600  *  -0.01374200  *
    12       H         -3.15875200  *   0.70627100  *  -0.11360300  *
    13       H         -2.39405000  *  -1.66559100  *  -0.04149800  *



          CARTESIAN COORDINATES 

    NO.       ATOM           X           Y           Z

     1         C          2.0387     -0.4588      0.0734
     2         C          0.5808     -0.1311      0.0208
     3         C          0.1487      1.2008     -0.0197
     4         N         -1.1827      1.4705     -0.0670
     5         C         -2.1035      0.4711     -0.0757
     6         C         -1.6753     -0.8571     -0.0353
     7         N         -0.3446     -1.1288      0.0120
     8         H          2.5479     -0.0485     -0.8239
     9         H          2.1908     -1.5587      0.0986
    10         H          2.4900     -0.0151      0.9857
    11         H          0.8620      2.0150     -0.0137
    12         H         -3.1588      0.7063     -0.1136
    13         H         -2.3941     -1.6656     -0.0415

 General Reference for PM7:
 "Optimization of Parameters for Semiempirical Methods VI: More Modifications to the 
 NDDO Approximations and Re-optimization of Parameters", J. J. P. Stewart, J. Mol. Mod., 1:32, 19 (2013)
 https://link.springer.com/article/10.1007/s00894-012-1667-x

           Empirical Formula: C5 H6 N2  =    13 atoms



      MOLECULAR POINT GROUP   :   Cs  


      RHF CALCULATION, NO. OF DOUBLY OCCUPIED LEVELS = 18


          Geometry optimization using EF

          DIAGONAL MATRIX USED AS START HESSIAN

 CYCLE:     1 TIME:   0.008 TIME LEFT:  2.00D  GRAD.:    72.833 HEAT:  37.54346
 CYCLE:     2 TIME:   0.012 TIME LEFT:  2.00D  GRAD.:    50.658 HEAT:  35.94850
 CYCLE:     3 TIME:   0.008 TIME LEFT:  2.00D  GRAD.:    28.896 HEAT:  34.82993
 CYCLE:     4 TIME:   0.008 TIME LEFT:  2.00D  GRAD.:    34.322 HEAT:  34.66480
 CYCLE:     5 TIME:   0.004 TIME LEFT:  2.00D  GRAD.:    30.813 HEAT:  34.48564
 CYCLE:     6 TIME:   0.008 TIME LEFT:  2.00D  GRAD.:    21.306 HEAT:  34.35676
 CYCLE:     7 TIME:   0.004 TIME LEFT:  2.00D  GRAD.:    17.387 HEAT:  34.31543
 CYCLE:     8 TIME:   0.004 TIME LEFT:  2.00D  GRAD.:    13.804 HEAT:  34.27213
 CYCLE:     9 TIME:   0.004 TIME LEFT:  2.00D  GRAD.:    14.064 HEAT:  34.24740
 CYCLE:    10 TIME:   0.008 TIME LEFT:  2.00D  GRAD.:     9.063 HEAT:  34.21311
 CYCLE:    11 TIME:   0.000 TIME LEFT:  2.00D  GRAD.:     9.201 HEAT:  34.21183
 CYCLE:    12 TIME:   0.004 TIME LEFT:  2.00D  GRAD.:     5.588 HEAT:  34.19493
 CYCLE:    13 TIME:   0.008 TIME LEFT:  2.00D  GRAD.:     6.057 HEAT:  34.19082
 CYCLE:    14 TIME:   0.008 TIME LEFT:  2.00D  GRAD.:     3.035 HEAT:  34.18320
 CYCLE:    15 TIME:   0.004 TIME LEFT:  2.00D  GRAD.:     2.016 HEAT:  34.18096
 CYCLE:    16 TIME:   0.004 TIME LEFT:  2.00D  GRAD.:     2.484 HEAT:  34.17672
 CYCLE:    17 TIME:   0.008 TIME LEFT:  2.00D  GRAD.:     4.677 HEAT:  34.17356
 CYCLE:    18 TIME:   0.000 TIME LEFT:  2.00D  GRAD.:     3.827 HEAT:  34.17165
 CYCLE:    19 TIME:   0.004 TIME LEFT:  2.00D  GRAD.:     3.920 HEAT:  34.17071
 CYCLE:    20 TIME:   0.004 TIME LEFT:  2.00D  GRAD.:     0.936 HEAT:  34.16533

     GRADIENT =  0.93600 IS LESS THAN CUTOFF =  1.00000



 -------------------------------------------------------------------------------
 PM7 XYZ

 freesolv_95 - geometry optimisation


     GEOMETRY OPTIMISED USING EIGENVECTOR FOLLOWING (EF).     
     SCF FIELD WAS ACHIEVED                                   


                              PM7 CALCULATION
                                                       MOPAC v23.0.3 Linux
                                                       Fri Jul 25 15:25:20 2025




          FINAL HEAT OF FORMATION =         34.16532 KCAL/MOL =     142.94770 KJ/MOL


          COSMO AREA              =        131.18 SQUARE ANGSTROMS
          COSMO VOLUME            =        120.46 CUBIC ANGSTROMS

          GRADIENT NORM           =          0.93600          =       0.25960 PER ATOM
          IONIZATION POTENTIAL    =         10.081604 EV
          HOMO LUMO ENERGIES (EV) =        -10.082 -0.635
          NO. OF FILLED LEVELS    =         18
          MOLECULAR WEIGHT        =         94.1158         POINT GROUP:  Cs  

          MOLECULAR DIMENSIONS (Angstroms)

            Atom       Atom       Distance
            H    12    H     9     5.79981
            H    13    H    11     4.69055
            H     8    H    10     1.77808


          SCF CALCULATIONS        =         30

          WALL-CLOCK TIME         =      0.129 SECONDS
          COMPUTATION TIME        =      2.176 SECONDS




   ATOM   CHEMICAL          X               Y               Z
  NUMBER   SYMBOL      (ANGSTROMS)     (ANGSTROMS)     (ANGSTROMS)

     1       C          2.00990714  *  -0.47052335  *   0.07272959  *
     2       C          0.56172884  *  -0.13710491  *   0.02045432  *
     3       C          0.11221042  *   1.20574281  *  -0.02089463  *
     4       N         -1.19494287  *   1.50151710  *  -0.06798729  *
     5       C         -2.07525531  *   0.48264596  *  -0.07506731  *
     6       C         -1.63480291  *  -0.85406167  *  -0.03418092  *
     7       N         -0.32353361  *  -1.15316915  *   0.01314815  *
     8       H          2.54541772  *  -0.08355795  *  -0.80715536  *
     9       H          2.17958988  *  -1.56178437  *   0.09857934  *
    10       H          2.48900426  *  -0.05024282  *   0.96971866  *
    11       H          0.80865812  *   2.04859783  *  -0.01607894  *
    12       H         -3.13495616  *   0.75084461  *  -0.11380538  *
    13       H         -2.32859045  *  -1.70153723  *  -0.03889560  *

                             CARTESIAN COORDINATES

   1    C        2.009907137    -0.470523350     0.072729594
   2    C        0.561728839    -0.137104915     0.020454322
   3    C        0.112210424     1.205742811    -0.020894625
   4    N       -1.194942866     1.501517100    -0.067987285
   5    C       -2.075255309     0.482645957    -0.075067313
   6    C       -1.634802906    -0.854061666    -0.034180922
   7    N       -0.323533612    -1.153169154     0.013148150
   8    H        2.545417722    -0.083557946    -0.807155360
   9    H        2.179589882    -1.561784369     0.098579341
  10    H        2.489004258    -0.050242824     0.969718659
  11    H        0.808658122     2.048597829    -0.016078943
  12    H       -3.134956161     0.750844609    -0.113805380
  13    H       -2.328590451    -1.701537233    -0.038895597


           Empirical Formula: C5 H6 N2  =    13 atoms



      MOLECULAR POINT GROUP   :   Cs  


                  EIGENVALUES  
 -37.31349 -34.44262 -28.02640 -25.30473 -23.65305 -21.97479 -17.98407 -17.74694
 -16.55728 -15.86334 -14.74209 -14.18348 -13.89299 -13.33117 -12.06210 -12.05288
 -10.24551 -10.08160  -0.63489  -0.43646   2.02505   2.99779   3.11015   3.53698
   3.64793   4.23221   4.56182   5.09146   5.14779   5.23672   5.35402   5.70487
   5.89292   6.38358


              NET ATOMIC CHARGES AND DIPOLE CONTRIBUTIONS

  ATOM NO.   TYPE          CHARGE      No. of ELECS.   s-Pop       p-Pop       
    1          C          -0.448929        4.4489     1.04976     3.39917
    2          C           0.149065        3.8509     1.08152     2.76942
    3          C          -0.066688        4.0667     1.10264     2.96405
    4          N          -0.293855        5.2939     1.73613     3.55773
    5          C          -0.059430        4.0594     1.10017     2.95926
    6          C          -0.016413        4.0164     1.10367     2.91275
    7          N          -0.343292        5.3433     1.74074     3.60255
    8          H           0.168984        0.8310     0.83102
    9          H           0.184882        0.8151     0.81512
   10          H           0.169028        0.8310     0.83097
   11          H           0.186057        0.8139     0.81394
   12          H           0.186404        0.8136     0.81360
   13          H           0.184188        0.8158     0.81581
 DIPOLE           X         Y         Z       TOTAL
 POINT-CHG.     0.852    -0.256     0.032     0.890
 HYBRID         0.025    -0.036     0.002     0.044
 SUM            0.877    -0.292     0.034     0.925


          ATOMIC ORBITAL ELECTRON POPULATIONS

     Atom    s        px        py        pz   
    1  C   1.04976   1.01189   1.20634   1.18094
    2  C   1.08152   0.95370   0.90603   0.90969
    3  C   1.10264   0.94579   1.03081   0.98744
    4  N   1.73613   1.09081   1.38817   1.07875
    5  C   1.10017   1.05005   0.92360   0.98561
    6  C   1.10367   0.93723   1.02942   0.94609
    7  N   1.74074   1.09339   1.39042   1.11874
    8  H   0.83102
    9  H   0.81512
   10  H   0.83097
   11  H   0.81394
   12  H   0.81360
   13  H   0.81581

 **********************
 *                    *
 * JOB ENDED NORMALLY *
 *                    *
 **********************



 TOTAL JOB TIME:             0.13 SECONDS

 == MOPAC DONE ==
