 *******************************************************************************
 **                                                                           **
 **                              MOPAC v23.0.3                                **
 **                                                                           **
 *******************************************************************************
 **          Digital Object Identifier (DOI): 10.5281/zenodo.6511958          **
 **    Visit the DOI location for information on how to cite this program.    **
 *******************************************************************************

                              PM7 CALCULATION RESULTS

 *******************************************************************************
 *  CALCULATION DONE:                                Fri Jul 25 15:24:42 2025  *
 *  PM7        - The PM7 Hamiltonian to be used
 *  XYZ        - CARTESIAN COORDINATE SYSTEM TO BE USED
 *  T=         - A TIME OF 172800.0 SECONDS REQUESTED
 *  DUMP=N     - RESTART FILE WRITTEN EVERY 7200.0 SECONDS REQUESTED
 *******************************************************************************
PM7 XYZ

 freesolv_439 - geometry optimisation
   ATOM   CHEMICAL          X               Y               Z
  NUMBER   SYMBOL      (ANGSTROMS)     (ANGSTROMS)     (ANGSTROMS)

     1       C          3.75275200  *  -0.70972300  *   0.38305600  *
     2       C          2.88787700  *  -0.37682200  *  -0.83265700  *
     3       C          1.38433100  *  -0.53255400  *  -0.55551300  *
     4       C          0.83218200  *   0.58713600  *   0.34347800  *
     5       C         -0.66885200  *   0.42455200  *   0.63293000  *
     6       C         -1.54566800  *   0.71367400  *  -0.59845200  *
     7       C         -3.03812500  *   0.81352700  *  -0.24720400  *
     8       C         -3.63867100  *  -0.53050200  *   0.16384900  *
     9       H          4.82300800  *  -0.69878200  *   0.08739300  *
    10       H          3.50520600  *  -1.72022800  *   0.77207400  *
    11       H          3.61082700  *   0.04166600  *   1.18671100  *
    12       H          3.10952000  *   0.65677700  *  -1.17691600  *
    13       H          3.16630400  *  -1.07084400  *  -1.65528300  *
    14       H          1.18725500  *  -1.52495000  *  -0.09388900  *
    15       H          0.86078400  *  -0.50564200  *  -1.53419900  *
    16       H          1.36346900  *   0.56835500  *   1.31818300  *
    17       H          1.02073900  *   1.57846000  *  -0.12379600  *
    18       H         -0.93902200  *   1.13688500  *   1.44305900  *
    19       H         -0.86161400  *  -0.60331900  *   1.00841600  *
    20       H         -1.23479000  *   1.68264300  *  -1.04654600  *
    21       H         -1.40394500  *  -0.07625700  *  -1.36644100  *
    22       H         -3.58569100  *   1.18085900  *  -1.14216300  *
    23       H         -3.19150000  *   1.55470000  *   0.56702900  *
    24       H         -3.45277300  *  -1.29546200  *  -0.61977200  *
    25       H         -4.73557100  *  -0.41941400  *   0.29576300  *
    26       H         -3.20803300  *  -0.87473300  *   1.12691300  *



          CARTESIAN COORDINATES 

    NO.       ATOM           X           Y           Z

     1         C          3.7528     -0.7097      0.3831
     2         C          2.8879     -0.3768     -0.8327
     3         C          1.3843     -0.5326     -0.5555
     4         C          0.8322      0.5871      0.3435
     5         C         -0.6689      0.4246      0.6329
     6         C         -1.5457      0.7137     -0.5985
     7         C         -3.0381      0.8135     -0.2472
     8         C         -3.6387     -0.5305      0.1638
     9         H          4.8230     -0.6988      0.0874
    10         H          3.5052     -1.7202      0.7721
    11         H          3.6108      0.0417      1.1867
    12         H          3.1095      0.6568     -1.1769
    13         H          3.1663     -1.0708     -1.6553
    14         H          1.1873     -1.5250     -0.0939
    15         H          0.8608     -0.5056     -1.5342
    16         H          1.3635      0.5684      1.3182
    17         H          1.0207      1.5785     -0.1238
    18         H         -0.9390      1.1369      1.4431
    19         H         -0.8616     -0.6033      1.0084
    20         H         -1.2348      1.6826     -1.0465
    21         H         -1.4039     -0.0763     -1.3664
    22         H         -3.5857      1.1809     -1.1422
    23         H         -3.1915      1.5547      0.5670
    24         H         -3.4528     -1.2955     -0.6198
    25         H         -4.7356     -0.4194      0.2958
    26         H         -3.2080     -0.8747      1.1269

 General Reference for PM7:
 "Optimization of Parameters for Semiempirical Methods VI: More Modifications to the 
 NDDO Approximations and Re-optimization of Parameters", J. J. P. Stewart, J. Mol. Mod., 1:32, 19 (2013)
 https://link.springer.com/article/10.1007/s00894-012-1667-x

           Empirical Formula: C8 H18  =    26 atoms



      MOLECULAR POINT GROUP   :   C1  


      RHF CALCULATION, NO. OF DOUBLY OCCUPIED LEVELS = 25


          Geometry optimization using EF

          DIAGONAL MATRIX USED AS START HESSIAN

 CYCLE:     1 TIME:   0.008 TIME LEFT:  2.00D  GRAD.:    30.748 HEAT: -45.47009
 CYCLE:     2 TIME:   0.020 TIME LEFT:  2.00D  GRAD.:    29.317 HEAT: -46.11452
 CYCLE:     3 TIME:   0.016 TIME LEFT:  2.00D  GRAD.:    20.850 HEAT: -46.44431
 CYCLE:     4 TIME:   0.008 TIME LEFT:  2.00D  GRAD.:    14.596 HEAT: -46.61733
 CYCLE:     5 TIME:   0.016 TIME LEFT:  2.00D  GRAD.:     8.406 HEAT: -46.71641
 CYCLE:     6 TIME:   0.016 TIME LEFT:  2.00D  GRAD.:     6.553 HEAT: -46.74874
 CYCLE:     7 TIME:   0.008 TIME LEFT:  2.00D  GRAD.:     4.892 HEAT: -46.77161
 CYCLE:     8 TIME:   0.008 TIME LEFT:  2.00D  GRAD.:     8.637 HEAT: -46.77792
 CYCLE:     9 TIME:   0.012 TIME LEFT:  2.00D  GRAD.:     6.614 HEAT: -46.80120
 CYCLE:    10 TIME:   0.008 TIME LEFT:  2.00D  GRAD.:     7.972 HEAT: -46.81567
 CYCLE:    11 TIME:   0.008 TIME LEFT:  2.00D  GRAD.:     7.679 HEAT: -46.82899
 CYCLE:    12 TIME:   0.008 TIME LEFT:  2.00D  GRAD.:     8.934 HEAT: -46.83696
 CYCLE:    13 TIME:   0.008 TIME LEFT:  2.00D  GRAD.:     7.695 HEAT: -46.85210
 CYCLE:    14 TIME:   0.016 TIME LEFT:  2.00D  GRAD.:     4.446 HEAT: -46.87534
 CYCLE:    15 TIME:   0.016 TIME LEFT:  2.00D  GRAD.:     2.735 HEAT: -46.88429
 CYCLE:    16 TIME:   0.012 TIME LEFT:  2.00D  GRAD.:     3.346 HEAT: -46.88542
 CYCLE:    17 TIME:   0.008 TIME LEFT:  2.00D  GRAD.:     2.109 HEAT: -46.89732
 CYCLE:    18 TIME:   0.016 TIME LEFT:  2.00D  GRAD.:     5.291 HEAT: -46.89202
 CYCLE:    19 TIME:   0.008 TIME LEFT:  2.00D  GRAD.:     2.202 HEAT: -46.90326
 CYCLE:    20 TIME:   0.016 TIME LEFT:  2.00D  GRAD.:     3.571 HEAT: -46.90060
 CYCLE:    21 TIME:   0.008 TIME LEFT:  2.00D  GRAD.:     1.771 HEAT: -46.90554
 CYCLE:    22 TIME:   0.008 TIME LEFT:  2.00D  GRAD.:     5.230 HEAT: -46.89668
 CYCLE:    23 TIME:   0.016 TIME LEFT:  2.00D  GRAD.:     1.634 HEAT: -46.90723
 CYCLE:    24 TIME:   0.020 TIME LEFT:  2.00D  GRAD.:     2.420 HEAT: -46.90647
 CYCLE:    25 TIME:   0.012 TIME LEFT:  2.00D  GRAD.:     1.272 HEAT: -46.90904
 CYCLE:    26 TIME:   0.008 TIME LEFT:  2.00D  GRAD.:     4.446 HEAT: -46.90372
 CYCLE:    27 TIME:   0.008 TIME LEFT:  2.00D  GRAD.:     1.656 HEAT: -46.91088
 CYCLE:    28 TIME:   0.012 TIME LEFT:  2.00D  GRAD.:     4.538 HEAT: -46.90410
 CYCLE:    29 TIME:   0.008 TIME LEFT:  2.00D  GRAD.:     1.304 HEAT: -46.91373
 CYCLE:    30 TIME:   0.008 TIME LEFT:  2.00D  GRAD.:     5.461 HEAT: -46.90443
 CYCLE:    31 TIME:   0.012 TIME LEFT:  2.00D  GRAD.:     1.607 HEAT: -46.91689
 CYCLE:    32 TIME:   0.016 TIME LEFT:  2.00D  GRAD.:     3.501 HEAT: -46.91337
 CYCLE:    33 TIME:   0.008 TIME LEFT:  2.00D  GRAD.:     1.135 HEAT: -46.92068
 CYCLE:    34 TIME:   0.008 TIME LEFT:  2.00D  GRAD.:     5.239 HEAT: -46.91456
 CYCLE:    35 TIME:   0.008 TIME LEFT:  2.00D  GRAD.:     2.323 HEAT: -46.92563
 CYCLE:    36 TIME:   0.012 TIME LEFT:  2.00D  GRAD.:     4.649 HEAT: -46.92217
 CYCLE:    37 TIME:   0.008 TIME LEFT:  2.00D  GRAD.:     3.072 HEAT: -46.93073
 CYCLE:    38 TIME:   0.031 TIME LEFT:  2.00D  GRAD.:     1.795 HEAT: -46.93431
 CYCLE:    39 TIME:   0.008 TIME LEFT:  2.00D  GRAD.:     3.179 HEAT: -46.93507
 CYCLE:    40 TIME:   0.008 TIME LEFT:  2.00D  GRAD.:     2.442 HEAT: -46.94233
 CYCLE:    41 TIME:   0.023 TIME LEFT:  2.00D  GRAD.:     5.553 HEAT: -46.93379
 CYCLE:    42 TIME:   0.008 TIME LEFT:  2.00D  GRAD.:     0.973 HEAT: -46.94623

     GRADIENT =  0.97341 IS LESS THAN CUTOFF =  1.00000



 -------------------------------------------------------------------------------
 PM7 XYZ

 freesolv_439 - geometry optimisation


     GEOMETRY OPTIMISED USING EIGENVECTOR FOLLOWING (EF).     
     SCF FIELD WAS ACHIEVED                                   


                              PM7 CALCULATION
                                                       MOPAC v23.0.3 Linux
                                                       Fri Jul 25 15:24:43 2025




          FINAL HEAT OF FORMATION =        -46.94623 KCAL/MOL =    -196.42303 KJ/MOL


          COSMO AREA              =        189.83 SQUARE ANGSTROMS
          COSMO VOLUME            =        186.71 CUBIC ANGSTROMS

          GRADIENT NORM           =          0.97341          =       0.19090 PER ATOM
          IONIZATION POTENTIAL    =         10.848436 EV
          HOMO LUMO ENERGIES (EV) =        -10.848  3.994
          NO. OF FILLED LEVELS    =         25
          MOLECULAR WEIGHT        =        114.2302         POINT GROUP:  C1  

          MOLECULAR DIMENSIONS (Angstroms)

            Atom       Atom       Distance
            H    25    H     9     9.44677
            H    20    H    10     3.85037
            H    18    H    13     3.71148


          SCF CALCULATIONS        =         58

          WALL-CLOCK TIME         =      0.504 SECONDS
          COMPUTATION TIME        =     10.029 SECONDS




   ATOM   CHEMICAL          X               Y               Z
  NUMBER   SYMBOL      (ANGSTROMS)     (ANGSTROMS)     (ANGSTROMS)

     1       C          3.71512692  *  -0.71027287  *   0.37870889  *
     2       C          2.85215160  *  -0.39141811  *  -0.84260826  *
     3       C          1.35316223  *  -0.54169307  *  -0.54541092  *
     4       C          0.83430871  *   0.59463394  *   0.34574624  *
     5       C         -0.66468231  *   0.45356527  *   0.64301265  *
     6       C         -1.52375441  *   0.73621879  *  -0.59617618  *
     7       C         -3.01850676  *   0.81223827  *  -0.25246436  *
     8       C         -3.58705293  *  -0.54877102  *   0.14870619  *
     9       H          4.78151027  *  -0.62625456  *   0.14517490  *
    10       H          3.53437346  *  -1.72810412  *   0.74063499  *
    11       H          3.50544943  *  -0.02593287  *   1.20775570  *
    12       H          3.06596200  *   0.63360059  *  -1.19908988  *
    13       H          3.13068482  *  -1.06299559  *  -1.67756971  *
    14       H          1.15839798  *  -1.51856313  *  -0.06581540  *
    15       H          0.78934336  *  -0.55666440  *  -1.49743269  *
    16       H          1.39700715  *   0.60348023  *   1.29916109  *
    17       H          1.03669688  *   1.57172732  *  -0.13072807  *
    18       H         -0.94410987  *   1.14964565  *   1.45677008  *
    19       H         -0.87946443  *  -0.56058150  *   1.02897961  *
    20       H         -1.20457018  *   1.68773954  *  -1.06249894  *
    21       H         -1.35462853  *  -0.04501705  *  -1.36003920  *
    22       H         -3.57546421  *   1.20353545  *  -1.12555835  *
    23       H         -3.18295909  *   1.54497761  *   0.55989815  *
    24       H         -3.43846777  *  -1.29242270  *  -0.64167037  *
    25       H         -4.66205338  *  -0.48722288  *   0.34825558  *
    26       H         -3.10602271  *  -0.93275077  *   1.05473522  *

                             CARTESIAN COORDINATES

   1    C        3.715126923    -0.710272870     0.378708892
   2    C        2.852151600    -0.391418114    -0.842608260
   3    C        1.353162232    -0.541693068    -0.545410916
   4    C        0.834308715     0.594633943     0.345746236
   5    C       -0.664682305     0.453565266     0.643012652
   6    C       -1.523754407     0.736218791    -0.596176181
   7    C       -3.018506760     0.812238270    -0.252464358
   8    C       -3.587052929    -0.548771017     0.148706189
   9    H        4.781510269    -0.626254563     0.145174895
  10    H        3.534373457    -1.728104122     0.740634989
  11    H        3.505449428    -0.025932869     1.207755701
  12    H        3.065962003     0.633600585    -1.199089882
  13    H        3.130684820    -1.062995594    -1.677569708
  14    H        1.158397982    -1.518563127    -0.065815396
  15    H        0.789343356    -0.556664397    -1.497432694
  16    H        1.397007150     0.603480228     1.299161092
  17    H        1.036696884     1.571727318    -0.130728066
  18    H       -0.944109875     1.149645648     1.456770085
  19    H       -0.879464432    -0.560581496     1.028979605
  20    H       -1.204570177     1.687739543    -1.062498938
  21    H       -1.354628535    -0.045017054    -1.360039203
  22    H       -3.575464212     1.203535447    -1.125558348
  23    H       -3.182959094     1.544977612     0.559898154
  24    H       -3.438467770    -1.292422700    -0.641670369
  25    H       -4.662053384    -0.487222875     0.348255579
  26    H       -3.106022705    -0.932750771     1.054735224


           Empirical Formula: C8 H18  =    26 atoms



      MOLECULAR POINT GROUP   :   C1  


                  EIGENVALUES  
 -29.55723 -28.24333 -26.22837 -23.82968 -22.64673 -20.64406 -19.75556 -19.13002
 -15.99136 -15.74955 -15.59212 -14.80772 -14.57088 -14.10711 -13.47030 -13.19432
 -12.88265 -12.45115 -12.18028 -11.79911 -11.55457 -11.40936 -11.22871 -10.96649
 -10.84844   3.99450   4.32946   4.39166   4.45224   4.70850   4.75159   4.97318
   5.64299   5.66666   5.72516   5.76452   5.96045   5.97131   6.14529   6.18153
   6.24051   6.24879   6.65307   6.67595   6.73536   6.79678   6.85415   6.91570
   7.14620   7.15765


              NET ATOMIC CHARGES AND DIPOLE CONTRIBUTIONS

  ATOM NO.   TYPE          CHARGE      No. of ELECS.   s-Pop       p-Pop       
    1          C          -0.436717        4.4367     1.05175     3.38497
    2          C          -0.250710        4.2507     1.05530     3.19541
    3          C          -0.268135        4.2681     1.05963     3.20851
    4          C          -0.271646        4.2716     1.05979     3.21186
    5          C          -0.271275        4.2713     1.05953     3.21175
    6          C          -0.267433        4.2674     1.05958     3.20786
    7          C          -0.251378        4.2514     1.05535     3.19603
    8          C          -0.436423        4.4364     1.05164     3.38479
    9          H           0.137779        0.8622     0.86222
   10          H           0.141867        0.8581     0.85813
   11          H           0.142300        0.8577     0.85770
   12          H           0.133580        0.8664     0.86642
   13          H           0.130575        0.8694     0.86943
   14          H           0.136847        0.8632     0.86315
   15          H           0.133084        0.8669     0.86692
   16          H           0.135227        0.8648     0.86477
   17          H           0.135654        0.8643     0.86435
   18          H           0.134020        0.8660     0.86598
   19          H           0.137357        0.8626     0.86264
   20          H           0.132919        0.8671     0.86708
   21          H           0.136368        0.8636     0.86363
   22          H           0.130316        0.8697     0.86968
   23          H           0.133269        0.8667     0.86673
   24          H           0.142095        0.8579     0.85791
   25          H           0.137734        0.8623     0.86227
   26          H           0.142728        0.8573     0.85727
 DIPOLE           X         Y         Z       TOTAL
 POINT-CHG.    -0.004     0.025    -0.028     0.037
 HYBRID         0.012    -0.072     0.071     0.102
 SUM            0.009    -0.047     0.044     0.065


          ATOMIC ORBITAL ELECTRON POPULATIONS

     Atom    s        px        py        pz   
    1  C   1.05175   1.12335   1.16819   1.09343
    2  C   1.05530   0.99664   1.14931   1.04946
    3  C   1.05963   1.01342   1.08284   1.11224
    4  C   1.05979   1.01567   1.08192   1.11427
    5  C   1.05953   0.99554   1.15702   1.05918
    6  C   1.05958   0.99489   1.15421   1.05875
    7  C   1.05535   1.01659   1.03771   1.14173
    8  C   1.05164   1.14688   1.07217   1.16574
    9  H   0.86222
   10  H   0.85813
   11  H   0.85770
   12  H   0.86642
   13  H   0.86943
   14  H   0.86315
   15  H   0.86692
   16  H   0.86477
   17  H   0.86435
   18  H   0.86598
   19  H   0.86264
   20  H   0.86708
   21  H   0.86363
   22  H   0.86968
   23  H   0.86673
   24  H   0.85791
   25  H   0.86227
   26  H   0.85727

 **********************
 *                    *
 * JOB ENDED NORMALLY *
 *                    *
 **********************



 TOTAL JOB TIME:             0.50 SECONDS

 == MOPAC DONE ==
