 *******************************************************************************
 **                                                                           **
 **                              MOPAC v23.0.3                                **
 **                                                                           **
 *******************************************************************************
 **          Digital Object Identifier (DOI): 10.5281/zenodo.6511958          **
 **    Visit the DOI location for information on how to cite this program.    **
 *******************************************************************************

                              PM7 CALCULATION RESULTS

 *******************************************************************************
 *  CALCULATION DONE:                                Fri Jul 25 15:22:41 2025  *
 *  PM7        - The PM7 Hamiltonian to be used
 *  XYZ        - CARTESIAN COORDINATE SYSTEM TO BE USED
 *  T=         - A TIME OF 172800.0 SECONDS REQUESTED
 *  DUMP=N     - RESTART FILE WRITTEN EVERY 7200.0 SECONDS REQUESTED
 *******************************************************************************
PM7 XYZ

 freesolv_230 - geometry optimisation
   ATOM   CHEMICAL          X               Y               Z
  NUMBER   SYMBOL      (ANGSTROMS)     (ANGSTROMS)     (ANGSTROMS)

     1       C          2.56037500  *   0.68792800  *   0.79658000  *
     2       C          1.58515400  *   0.87985600  *  -0.36422900  *
     3       C          1.10163000  *  -0.45206800  *  -0.96542800  *
     4       C          0.23269400  *  -1.29183900  *  -0.01291900  *
     5       C         -1.01423900  *  -0.56874000  *   0.42153000  *
     6       C         -2.01220700  *  -0.31074200  *  -0.43500100  *
     7       C         -3.24795400  *   0.40393100  *   0.01570700  *
     8       H          3.39919500  *   0.02519000  *   0.49514100  *
     9       H          2.97777200  *   1.67295000  *   1.09401200  *
    10       H          2.04195200  *   0.25436000  *   1.67668200  *
    11       H          0.72072900  *   1.49109000  *  -0.02706700  *
    12       H          2.10387800  *   1.45335600  *  -1.16268200  *
    13       H          1.98283500  *  -1.05614000  *  -1.27304300  *
    14       H          0.52268000  *  -0.23459200  *  -1.88908300  *
    15       H          0.82252300  *  -1.57670900  *   0.88318600  *
    16       H         -0.05485600  *  -2.23727600  *  -0.52209300  *
    17       H         -1.10580200  *  -0.27223200  *   1.46315400  *
    18       H         -1.93434400  *  -0.62046100  *  -1.47355500  *
    19       H         -3.75156000  *  -0.17781600  *   0.81643200  *
    20       H         -3.94716600  *   0.51861500  *  -0.83879200  *
    21       H         -2.98328700  *   1.41133600  *   0.40088600  *



          CARTESIAN COORDINATES 

    NO.       ATOM           X           Y           Z

     1         C          2.5604      0.6879      0.7966
     2         C          1.5852      0.8799     -0.3642
     3         C          1.1016     -0.4521     -0.9654
     4         C          0.2327     -1.2918     -0.0129
     5         C         -1.0142     -0.5687      0.4215
     6         C         -2.0122     -0.3107     -0.4350
     7         C         -3.2480      0.4039      0.0157
     8         H          3.3992      0.0252      0.4951
     9         H          2.9778      1.6730      1.0940
    10         H          2.0420      0.2544      1.6767
    11         H          0.7207      1.4911     -0.0271
    12         H          2.1039      1.4534     -1.1627
    13         H          1.9828     -1.0561     -1.2730
    14         H          0.5227     -0.2346     -1.8891
    15         H          0.8225     -1.5767      0.8832
    16         H         -0.0549     -2.2373     -0.5221
    17         H         -1.1058     -0.2722      1.4632
    18         H         -1.9343     -0.6205     -1.4736
    19         H         -3.7516     -0.1778      0.8164
    20         H         -3.9472      0.5186     -0.8388
    21         H         -2.9833      1.4113      0.4009

 General Reference for PM7:
 "Optimization of Parameters for Semiempirical Methods VI: More Modifications to the 
 NDDO Approximations and Re-optimization of Parameters", J. J. P. Stewart, J. Mol. Mod., 1:32, 19 (2013)
 https://link.springer.com/article/10.1007/s00894-012-1667-x

           Empirical Formula: C7 H14  =    21 atoms



      MOLECULAR POINT GROUP   :   C1  


      RHF CALCULATION, NO. OF DOUBLY OCCUPIED LEVELS = 21


          Geometry optimization using EF

          DIAGONAL MATRIX USED AS START HESSIAN

 CYCLE:     1 TIME:   0.012 TIME LEFT:  2.00D  GRAD.:    34.053 HEAT: -16.60969
 CYCLE:     2 TIME:   0.023 TIME LEFT:  2.00D  GRAD.:    37.430 HEAT: -17.26481
 CYCLE:     3 TIME:   0.016 TIME LEFT:  2.00D  GRAD.:    38.147 HEAT: -17.47867
 CYCLE:     4 TIME:   0.008 TIME LEFT:  2.00D  GRAD.:    22.938 HEAT: -17.68348
 CYCLE:     5 TIME:   0.008 TIME LEFT:  2.00D  GRAD.:    24.081 HEAT: -17.82622
 CYCLE:     6 TIME:   0.008 TIME LEFT:  2.00D  GRAD.:    16.793 HEAT: -17.90425
 CYCLE:     7 TIME:   0.012 TIME LEFT:  2.00D  GRAD.:    12.750 HEAT: -17.99943
 CYCLE:     8 TIME:   0.004 TIME LEFT:  2.00D  GRAD.:    11.618 HEAT: -18.00610
 CYCLE:     9 TIME:   0.008 TIME LEFT:  2.00D  GRAD.:    18.885 HEAT: -18.00942
 CYCLE:    10 TIME:   0.008 TIME LEFT:  2.00D  GRAD.:    14.544 HEAT: -18.01216
 CYCLE:    11 TIME:   0.008 TIME LEFT:  2.00D  GRAD.:     8.692 HEAT: -18.07961
 CYCLE:    12 TIME:   0.008 TIME LEFT:  2.00D  GRAD.:     3.002 HEAT: -18.09788
 CYCLE:    13 TIME:   0.008 TIME LEFT:  2.00D  GRAD.:     4.361 HEAT: -18.10112
 CYCLE:    14 TIME:   0.008 TIME LEFT:  2.00D  GRAD.:     3.505 HEAT: -18.11308
 CYCLE:    15 TIME:   0.023 TIME LEFT:  2.00D  GRAD.:     8.637 HEAT: -18.11517
 CYCLE:    16 TIME:   0.008 TIME LEFT:  2.00D  GRAD.:     4.983 HEAT: -18.12974
 CYCLE:    17 TIME:   0.027 TIME LEFT:  2.00D  GRAD.:     3.899 HEAT: -18.13598
 CYCLE:    18 TIME:   0.012 TIME LEFT:  2.00D  GRAD.:     1.643 HEAT: -18.14068
 CYCLE:    19 TIME:   0.012 TIME LEFT:  2.00D  GRAD.:     7.352 HEAT: -18.13949
 CYCLE:    20 TIME:   0.012 TIME LEFT:  2.00D  GRAD.:     3.937 HEAT: -18.15116
 CYCLE:    21 TIME:   0.016 TIME LEFT:  2.00D  GRAD.:     4.187 HEAT: -18.15217
 CYCLE:    22 TIME:   0.008 TIME LEFT:  2.00D  GRAD.:     2.614 HEAT: -18.15728
 CYCLE:    23 TIME:   0.012 TIME LEFT:  2.00D  GRAD.:     4.424 HEAT: -18.15641
 CYCLE:    24 TIME:   0.012 TIME LEFT:  2.00D  GRAD.:     4.130 HEAT: -18.16095
 CYCLE:    25 TIME:   0.016 TIME LEFT:  2.00D  GRAD.:     2.239 HEAT: -18.16591
 CYCLE:    26 TIME:   0.012 TIME LEFT:  2.00D  GRAD.:     3.976 HEAT: -18.16562
 CYCLE:    27 TIME:   0.008 TIME LEFT:  2.00D  GRAD.:     3.098 HEAT: -18.17155
 CYCLE:    28 TIME:   0.016 TIME LEFT:  2.00D  GRAD.:     4.796 HEAT: -18.17229
 CYCLE:    29 TIME:   0.008 TIME LEFT:  2.00D  GRAD.:     3.849 HEAT: -18.17840
 CYCLE:    30 TIME:   0.008 TIME LEFT:  2.00D  GRAD.:     5.738 HEAT: -18.17858
 CYCLE:    31 TIME:   0.008 TIME LEFT:  2.00D  GRAD.:     6.052 HEAT: -18.18304
 CYCLE:    32 TIME:   0.012 TIME LEFT:  2.00D  GRAD.:     4.478 HEAT: -18.19481
 CYCLE:    33 TIME:   0.012 TIME LEFT:  2.00D  GRAD.:     3.359 HEAT: -18.20357
 CYCLE:    34 TIME:   0.039 TIME LEFT:  2.00D  GRAD.:     3.808 HEAT: -18.20532
 CYCLE:    35 TIME:   0.012 TIME LEFT:  2.00D  GRAD.:     1.704 HEAT: -18.21151
 CYCLE:    36 TIME:   0.012 TIME LEFT:  2.00D  GRAD.:     4.960 HEAT: -18.21976
 CYCLE:    37 TIME:   0.012 TIME LEFT:  2.00D  GRAD.:     7.188 HEAT: -18.22486
 CYCLE:    38 TIME:   0.012 TIME LEFT:  2.00D  GRAD.:     5.217 HEAT: -18.24566
 CYCLE:    39 TIME:   0.047 TIME LEFT:  2.00D  GRAD.:     4.253 HEAT: -18.25448
 CYCLE:    40 TIME:   0.012 TIME LEFT:  2.00D  GRAD.:     2.792 HEAT: -18.26189
 CYCLE:    41 TIME:   0.012 TIME LEFT:  2.00D  GRAD.:     1.357 HEAT: -18.26707
 CYCLE:    42 TIME:   0.012 TIME LEFT:  2.00D  GRAD.:     1.786 HEAT: -18.27040
 CYCLE:    43 TIME:   0.012 TIME LEFT:  2.00D  GRAD.:     1.669 HEAT: -18.27751
 CYCLE:    44 TIME:   0.016 TIME LEFT:  2.00D  GRAD.:     2.896 HEAT: -18.29301
 CYCLE:    45 TIME:   0.012 TIME LEFT:  2.00D  GRAD.:     2.844 HEAT: -18.30678
 CYCLE:    46 TIME:   0.012 TIME LEFT:  2.00D  GRAD.:     8.150 HEAT: -18.32636
 CYCLE:    47 TIME:   0.016 TIME LEFT:  2.00D  GRAD.:     7.060 HEAT: -18.33312
 CYCLE:    48 TIME:   0.012 TIME LEFT:  2.00D  GRAD.:     3.231 HEAT: -18.38033
 CYCLE:    49 TIME:   0.012 TIME LEFT:  2.00D  GRAD.:     2.793 HEAT: -18.39073
 CYCLE:    50 TIME:   0.027 TIME LEFT:  2.00D  GRAD.:     3.411 HEAT: -18.39659
 CYCLE:    51 TIME:   0.012 TIME LEFT:  2.00D  GRAD.:     3.999 HEAT: -18.39963
 CYCLE:    52 TIME:   0.008 TIME LEFT:  2.00D  GRAD.:     1.137 HEAT: -18.41453
 CYCLE:    53 TIME:   0.016 TIME LEFT:  2.00D  GRAD.:     2.026 HEAT: -18.42395
 CYCLE:    54 TIME:   0.012 TIME LEFT:  2.00D  GRAD.:     2.061 HEAT: -18.43709
 CYCLE:    55 TIME:   0.012 TIME LEFT:  2.00D  GRAD.:     2.570 HEAT: -18.47809
 CYCLE:    56 TIME:   0.012 TIME LEFT:  2.00D  GRAD.:     3.163 HEAT: -18.50493
 CYCLE:    57 TIME:   0.023 TIME LEFT:  2.00D  GRAD.:     3.426 HEAT: -18.51068
 CYCLE:    58 TIME:   0.012 TIME LEFT:  2.00D  GRAD.:     7.496 HEAT: -18.53064
 CYCLE:    59 TIME:   0.012 TIME LEFT:  2.00D  GRAD.:     6.681 HEAT: -18.57939
 CYCLE:    60 TIME:   0.012 TIME LEFT:  2.00D  GRAD.:     4.094 HEAT: -18.62202
 CYCLE:    61 TIME:   0.027 TIME LEFT:  2.00D  GRAD.:     8.576 HEAT: -18.65733
 CYCLE:    62 TIME:   0.027 TIME LEFT:  2.00D  GRAD.:     5.767 HEAT: -18.66809
 CYCLE:    63 TIME:   0.023 TIME LEFT:  2.00D  GRAD.:     5.524 HEAT: -18.67538
 CYCLE:    64 TIME:   0.008 TIME LEFT:  2.00D  GRAD.:     3.520 HEAT: -18.68698
 CYCLE:    65 TIME:   0.012 TIME LEFT:  2.00D  GRAD.:     3.714 HEAT: -18.70096
 CYCLE:    66 TIME:   0.016 TIME LEFT:  2.00D  GRAD.:     3.748 HEAT: -18.71503
 CYCLE:    67 TIME:   0.008 TIME LEFT:  2.00D  GRAD.:     4.148 HEAT: -18.73357
 CYCLE:    68 TIME:   0.008 TIME LEFT:  2.00D  GRAD.:     7.462 HEAT: -18.73709
 CYCLE:    69 TIME:   0.012 TIME LEFT:  2.00D  GRAD.:     2.880 HEAT: -18.75102
 CYCLE:    70 TIME:   0.012 TIME LEFT:  2.00D  GRAD.:     1.956 HEAT: -18.76965
 CYCLE:    71 TIME:   0.086 TIME LEFT:  2.00D  GRAD.:     1.791 HEAT: -18.77002
 CYCLE:    72 TIME:   0.012 TIME LEFT:  2.00D  GRAD.:     1.994 HEAT: -18.77682
 CYCLE:    73 TIME:   0.012 TIME LEFT:  2.00D  GRAD.:     1.783 HEAT: -18.77889
 CYCLE:    74 TIME:   0.008 TIME LEFT:  2.00D  GRAD.:     1.315 HEAT: -18.78146
 CYCLE:    75 TIME:   0.012 TIME LEFT:  2.00D  GRAD.:     2.598 HEAT: -18.78725
 CYCLE:    76 TIME:   0.012 TIME LEFT:  2.00D  GRAD.:     2.719 HEAT: -18.79337
 CYCLE:    77 TIME:   0.016 TIME LEFT:  2.00D  GRAD.:     8.509 HEAT: -18.79345
 CYCLE:    78 TIME:   0.012 TIME LEFT:  2.00D  GRAD.:     6.034 HEAT: -18.80618
 CYCLE:    79 TIME:   0.012 TIME LEFT:  2.00D  GRAD.:     4.197 HEAT: -18.81662
 CYCLE:    80 TIME:   0.008 TIME LEFT:  2.00D  GRAD.:     2.882 HEAT: -18.81995
 CYCLE:    81 TIME:   0.012 TIME LEFT:  2.00D  GRAD.:     2.441 HEAT: -18.82277
 CYCLE:    82 TIME:   0.012 TIME LEFT:  2.00D  GRAD.:     0.901 HEAT: -18.82594

     GRADIENT =  0.90121 IS LESS THAN CUTOFF =  1.00000



 -------------------------------------------------------------------------------
 PM7 XYZ

 freesolv_230 - geometry optimisation


     GEOMETRY OPTIMISED USING EIGENVECTOR FOLLOWING (EF).     
     SCF FIELD WAS ACHIEVED                                   


                              PM7 CALCULATION
                                                       MOPAC v23.0.3 Linux
                                                       Fri Jul 25 15:22:42 2025




          FINAL HEAT OF FORMATION =        -18.82594 KCAL/MOL =     -78.76773 KJ/MOL


          COSMO AREA              =        166.69 SQUARE ANGSTROMS
          COSMO VOLUME            =        159.36 CUBIC ANGSTROMS

          GRADIENT NORM           =          0.90121          =       0.19666 PER ATOM
          IONIZATION POTENTIAL    =          9.554610 EV
          HOMO LUMO ENERGIES (EV) =         -9.555  1.299
          NO. OF FILLED LEVELS    =         21
          MOLECULAR WEIGHT        =         98.1876         POINT GROUP:  C1  

          MOLECULAR DIMENSIONS (Angstroms)

            Atom       Atom       Distance
            H    19    H     8     7.84955
            H    16    H     9     3.81058
            H    14    H    10     3.11137


          SCF CALCULATIONS        =        118

          WALL-CLOCK TIME         =      1.184 SECONDS
          COMPUTATION TIME        =      3.254 SECONDS




   ATOM   CHEMICAL          X               Y               Z
  NUMBER   SYMBOL      (ANGSTROMS)     (ANGSTROMS)     (ANGSTROMS)

     1       C          2.80047951  *   0.54076147  *   0.77089760  *
     2       C          1.75043283  *   0.90121979  *  -0.28008911  *
     3       C          1.13520115  *  -0.34212024  *  -0.93718946  *
     4       C          0.18402022  *  -1.11007879  *  -0.00240608  *
     5       C         -1.04636047  *  -0.30803012  *   0.27722227  *
     6       C         -2.21828255  *  -0.54386021  *  -0.31914203  *
     7       C         -3.44196191  *   0.26231930  *  -0.04889666  *
     8       H          3.62880691  *  -0.02527722  *   0.33138181  *
     9       H          3.22243032  *   1.43988273  *   1.23314187  *
    10       H          2.37209899  *  -0.07067980  *   1.57282994  *
    11       H          0.95395751  *   1.51892011  *   0.17676696  *
    12       H          2.21034247  *   1.53791020  *  -1.06097183  *
    13       H          1.93965372  *  -1.01957826  *  -1.27935569  *
    14       H          0.58224629  *  -0.04185488  *  -1.84833272  *
    15       H          0.70349753  *  -1.35867064  *   0.94524359  *
    16       H         -0.06994855  *  -2.08634989  *  -0.46096680  *
    17       H         -0.91569119  *   0.49481683  *   0.99966892  *
    18       H         -2.34830945  *  -1.34573543  *  -1.04302169  *
    19       H         -4.21336129  *  -0.34653153  *   0.44381376  *
    20       H         -3.87799841  *   0.64905303  *  -0.98120868  *
    21       H         -3.24845287  *   1.12665313  *   0.59984085  *

                             CARTESIAN COORDINATES

   1    C        2.800479505     0.540761473     0.770897595
   2    C        1.750432829     0.901219794    -0.280089110
   3    C        1.135201154    -0.342120239    -0.937189456
   4    C        0.184020223    -1.110078792    -0.002406077
   5    C       -1.046360472    -0.308030119     0.277222269
   6    C       -2.218282545    -0.543860208    -0.319142033
   7    C       -3.441961906     0.262319296    -0.048896660
   8    H        3.628806909    -0.025277217     0.331381813
   9    H        3.222430323     1.439882728     1.233141867
  10    H        2.372098995    -0.070679798     1.572829938
  11    H        0.953957512     1.518920107     0.176766964
  12    H        2.210342469     1.537910200    -1.060971832
  13    H        1.939653722    -1.019578255    -1.279355691
  14    H        0.582246292    -0.041854876    -1.848332716
  15    H        0.703497529    -1.358670642     0.945243592
  16    H       -0.069948549    -2.086349886    -0.460966799
  17    H       -0.915691194     0.494816833     0.999668921
  18    H       -2.348309454    -1.345735426    -1.043021692
  19    H       -4.213361294    -0.346531527     0.443813757
  20    H       -3.877998409     0.649053028    -0.981208683
  21    H       -3.248452870     1.126653131     0.599840848


           Empirical Formula: C7 H14  =    21 atoms



      MOLECULAR POINT GROUP   :   C1  


                  EIGENVALUES  
 -29.28230 -27.65543 -25.65794 -23.32723 -21.57219 -19.77288 -18.49512 -15.99631
 -15.79657 -15.04198 -14.46902 -14.22225 -13.59579 -13.39259 -12.77417 -12.36132
 -12.07887 -11.50677 -11.32312 -11.17469  -9.55461   1.29887   4.15650   4.26752
   4.45852   4.74940   5.19003   5.37659   5.65613   5.74537   5.75927   5.94904
   5.98963   6.14077   6.19665   6.41701   6.59169   6.65365   6.74332   6.81276
   6.96856   7.13766


              NET ATOMIC CHARGES AND DIPOLE CONTRIBUTIONS

  ATOM NO.   TYPE          CHARGE      No. of ELECS.   s-Pop       p-Pop       
    1          C          -0.436160        4.4362     1.05183     3.38433
    2          C          -0.249071        4.2491     1.05494     3.19413
    3          C          -0.259048        4.2590     1.05951     3.19954
    4          C          -0.278003        4.2780     1.05422     3.22378
    5          C          -0.166824        4.1668     1.08889     3.07794
    6          C          -0.148995        4.1490     1.08435     3.06464
    7          C          -0.443652        4.4437     1.04728     3.39637
    8          H           0.140563        0.8594     0.85944
    9          H           0.138384        0.8616     0.86162
   10          H           0.142789        0.8572     0.85721
   11          H           0.137260        0.8627     0.86274
   12          H           0.130774        0.8692     0.86923
   13          H           0.134593        0.8654     0.86541
   14          H           0.136657        0.8633     0.86334
   15          H           0.145106        0.8549     0.85489
   16          H           0.138298        0.8617     0.86170
   17          H           0.142825        0.8572     0.85717
   18          H           0.140798        0.8592     0.85920
   19          H           0.153169        0.8468     0.84683
   20          H           0.151537        0.8485     0.84846
   21          H           0.149000        0.8510     0.85100
 DIPOLE           X         Y         Z       TOTAL
 POINT-CHG.    -0.006     0.067    -0.094     0.115
 HYBRID        -0.036     0.008     0.063     0.073
 SUM           -0.042     0.075    -0.031     0.091


          ATOMIC ORBITAL ELECTRON POPULATIONS

     Atom    s        px        py        pz   
    1  C   1.05183   1.10921   1.16283   1.11229
    2  C   1.05494   1.07289   1.04947   1.07177
    3  C   1.05951   1.08207   1.04971   1.06776
    4  C   1.05422   1.03043   1.07633   1.11702
    5  C   1.08889   0.98152   1.05249   1.04393
    6  C   1.08435   0.97834   1.04527   1.04103
    7  C   1.04728   1.08882   1.13723   1.17032
    8  H   0.85944
    9  H   0.86162
   10  H   0.85721
   11  H   0.86274
   12  H   0.86923
   13  H   0.86541
   14  H   0.86334
   15  H   0.85489
   16  H   0.86170
   17  H   0.85717
   18  H   0.85920
   19  H   0.84683
   20  H   0.84846
   21  H   0.85100

 **********************
 *                    *
 * JOB ENDED NORMALLY *
 *                    *
 **********************



 TOTAL JOB TIME:             1.18 SECONDS

 == MOPAC DONE ==
