 *******************************************************************************
 **                                                                           **
 **                              MOPAC v23.0.3                                **
 **                                                                           **
 *******************************************************************************
 **          Digital Object Identifier (DOI): 10.5281/zenodo.6511958          **
 **    Visit the DOI location for information on how to cite this program.    **
 *******************************************************************************

                              PM7 CALCULATION RESULTS

 *******************************************************************************
 *  CALCULATION DONE:                                Fri Jul 25 15:23:39 2025  *
 *  PM7        - The PM7 Hamiltonian to be used
 *  XYZ        - CARTESIAN COORDINATE SYSTEM TO BE USED
 *  T=         - A TIME OF 172800.0 SECONDS REQUESTED
 *  DUMP=N     - RESTART FILE WRITTEN EVERY 7200.0 SECONDS REQUESTED
 *******************************************************************************
PM7 XYZ

 freesolv_343 - geometry optimisation
   ATOM   CHEMICAL          X               Y               Z
  NUMBER   SYMBOL      (ANGSTROMS)     (ANGSTROMS)     (ANGSTROMS)

     1       C         -1.64977200  *  -1.21106500  *  -0.98842300  *
     2       C         -1.13310000  *  -0.02336400  *  -0.14108900  *
     3       C         -1.80487000  *  -0.11035700  *   1.24661900  *
     4       C         -1.57335100  *   1.27972800  *  -0.84302000  *
     5       C          0.40027900  *  -0.02340800  *   0.02877000  *
     6       C          1.23447600  *  -1.01719200  *  -0.53989700  *
     7       C          2.62060100  *  -0.97864500  *  -0.36067200  *
     8       C          3.20542400  *   0.04393500  *   0.38438300  *
     9       C          2.40583100  *   1.03305800  *   0.95378400  *
    10       C          1.01970600  *   1.00256400  *   0.77991100  *
    11       H         -1.22388800  *  -1.18051300  *  -2.01467200  *
    12       H         -2.75669500  *  -1.17361600  *  -1.08614900  *
    13       H         -1.39048200  *  -2.18078100  *  -0.51101800  *
    14       H         -1.56344700  *   0.77326900  *   1.87355700  *
    15       H         -1.46544700  *  -1.02253300  *   1.78357100  *
    16       H         -2.91124400  *  -0.15476500  *   1.14718900  *
    17       H         -2.67170100  *   1.28350900  *  -1.01488000  *
    18       H         -1.33004100  *   2.17467300  *  -0.23310000  *
    19       H         -1.06545400  *   1.37915200  *  -1.82676100  *
    20       H          0.83706000  *  -1.83203900  *  -1.12598900  *
    21       H          3.24339800  *  -1.74612200  *  -0.80221400  *
    22       H          4.27889300  *   0.06972600  *   0.52048500  *
    23       H          2.86035100  *   1.82702700  *   1.53232300  *
    24       H          0.43347300  *   1.78776000  *   1.23729100  *



          CARTESIAN COORDINATES 

    NO.       ATOM           X           Y           Z

     1         C         -1.6498     -1.2111     -0.9884
     2         C         -1.1331     -0.0234     -0.1411
     3         C         -1.8049     -0.1104      1.2466
     4         C         -1.5734      1.2797     -0.8430
     5         C          0.4003     -0.0234      0.0288
     6         C          1.2345     -1.0172     -0.5399
     7         C          2.6206     -0.9786     -0.3607
     8         C          3.2054      0.0439      0.3844
     9         C          2.4058      1.0331      0.9538
    10         C          1.0197      1.0026      0.7799
    11         H         -1.2239     -1.1805     -2.0147
    12         H         -2.7567     -1.1736     -1.0861
    13         H         -1.3905     -2.1808     -0.5110
    14         H         -1.5634      0.7733      1.8736
    15         H         -1.4654     -1.0225      1.7836
    16         H         -2.9112     -0.1548      1.1472
    17         H         -2.6717      1.2835     -1.0149
    18         H         -1.3300      2.1747     -0.2331
    19         H         -1.0655      1.3792     -1.8268
    20         H          0.8371     -1.8320     -1.1260
    21         H          3.2434     -1.7461     -0.8022
    22         H          4.2789      0.0697      0.5205
    23         H          2.8604      1.8270      1.5323
    24         H          0.4335      1.7878      1.2373

 General Reference for PM7:
 "Optimization of Parameters for Semiempirical Methods VI: More Modifications to the 
 NDDO Approximations and Re-optimization of Parameters", J. J. P. Stewart, J. Mol. Mod., 1:32, 19 (2013)
 https://link.springer.com/article/10.1007/s00894-012-1667-x

           Empirical Formula: C10 H14  =    24 atoms



      MOLECULAR POINT GROUP   :   Cs  


      RHF CALCULATION, NO. OF DOUBLY OCCUPIED LEVELS = 27


          Geometry optimization using EF

          DIAGONAL MATRIX USED AS START HESSIAN

 CYCLE:     1 TIME:   0.012 TIME LEFT:  2.00D  GRAD.:    49.079 HEAT: 0.7296136
 CYCLE:     2 TIME:   0.027 TIME LEFT:  2.00D  GRAD.:    40.403 HEAT:-0.2074580
 CYCLE:     3 TIME:   0.008 TIME LEFT:  2.00D  GRAD.:    33.425 HEAT:-0.6583250
 CYCLE:     4 TIME:   0.016 TIME LEFT:  2.00D  GRAD.:    26.539 HEAT:-0.8486795
 CYCLE:     5 TIME:   0.008 TIME LEFT:  2.00D  GRAD.:    27.867 HEAT:-0.9086133
 CYCLE:     6 TIME:   0.008 TIME LEFT:  2.00D  GRAD.:    17.563 HEAT: -1.077514
 CYCLE:     7 TIME:   0.016 TIME LEFT:  2.00D  GRAD.:    11.288 HEAT: -1.162955
 CYCLE:     8 TIME:   0.008 TIME LEFT:  2.00D  GRAD.:    15.185 HEAT: -1.179972
 CYCLE:     9 TIME:   0.008 TIME LEFT:  2.00D  GRAD.:    10.948 HEAT: -1.265023
 CYCLE:    10 TIME:   0.016 TIME LEFT:  2.00D  GRAD.:    13.664 HEAT: -1.273441
 CYCLE:    11 TIME:   0.012 TIME LEFT:  2.00D  GRAD.:    15.731 HEAT: -1.277265
 CYCLE:    12 TIME:   0.008 TIME LEFT:  2.00D  GRAD.:    10.422 HEAT: -1.325576
 CYCLE:    13 TIME:   0.008 TIME LEFT:  2.00D  GRAD.:    11.252 HEAT: -1.332336
 CYCLE:    14 TIME:   0.008 TIME LEFT:  2.00D  GRAD.:    10.135 HEAT: -1.354108
 CYCLE:    15 TIME:   0.008 TIME LEFT:  2.00D  GRAD.:     8.727 HEAT: -1.377054
 CYCLE:    16 TIME:   0.016 TIME LEFT:  2.00D  GRAD.:     6.187 HEAT: -1.392036
 CYCLE:    17 TIME:   0.008 TIME LEFT:  2.00D  GRAD.:     7.410 HEAT: -1.392541
 CYCLE:    18 TIME:   0.008 TIME LEFT:  2.00D  GRAD.:     3.011 HEAT: -1.409070
 CYCLE:    19 TIME:   0.016 TIME LEFT:  2.00D  GRAD.:     4.352 HEAT: -1.410452
 CYCLE:    20 TIME:   0.008 TIME LEFT:  2.00D  GRAD.:     1.396 HEAT: -1.419097
 CYCLE:    21 TIME:   0.008 TIME LEFT:  2.00D  GRAD.:     2.926 HEAT: -1.432659
 CYCLE:    22 TIME:   0.016 TIME LEFT:  2.00D  GRAD.:     4.348 HEAT: -1.433629
 CYCLE:    23 TIME:   0.008 TIME LEFT:  2.00D  GRAD.:     2.409 HEAT: -1.440391
 CYCLE:    24 TIME:   0.012 TIME LEFT:  2.00D  GRAD.:     4.038 HEAT: -1.436560
 CYCLE:    25 TIME:   0.008 TIME LEFT:  2.00D  GRAD.:     0.711 HEAT: -1.442893

     GRADIENT =  0.71145 IS LESS THAN CUTOFF =  1.00000



 -------------------------------------------------------------------------------
 PM7 XYZ

 freesolv_343 - geometry optimisation


     GEOMETRY OPTIMISED USING EIGENVECTOR FOLLOWING (EF).     
     SCF FIELD WAS ACHIEVED                                   


                              PM7 CALCULATION
                                                       MOPAC v23.0.3 Linux
                                                       Fri Jul 25 15:23:40 2025




          FINAL HEAT OF FORMATION =         -1.44289 KCAL/MOL =      -6.03707 KJ/MOL


          COSMO AREA              =        184.49 SQUARE ANGSTROMS
          COSMO VOLUME            =        194.16 CUBIC ANGSTROMS

          GRADIENT NORM           =          0.71145          =       0.14522 PER ATOM
          IONIZATION POTENTIAL    =          9.397547 EV
          HOMO LUMO ENERGIES (EV) =         -9.398  0.388
          NO. OF FILLED LEVELS    =         27
          MOLECULAR WEIGHT        =        134.2206         POINT GROUP:  Cs  

          MOLECULAR DIMENSIONS (Angstroms)

            Atom       Atom       Distance
            H    22    H    12     7.25611
            H    21    H    18     4.84443
            H    15    H    19     4.18461


          SCF CALCULATIONS        =         35

          WALL-CLOCK TIME         =      0.289 SECONDS
          COMPUTATION TIME        =      5.766 SECONDS




   ATOM   CHEMICAL          X               Y               Z
  NUMBER   SYMBOL      (ANGSTROMS)     (ANGSTROMS)     (ANGSTROMS)

     1       C         -1.61946589  *  -1.20957045  *  -0.98407221  *
     2       C         -1.11524205  *  -0.02582714  *  -0.14075974  *
     3       C         -1.76958505  *  -0.11196903  *   1.25078088  *
     4       C         -1.53786028  *   1.27927289  *  -0.84079947  *
     5       C          0.39223925  *  -0.02583884  *   0.02624757  *
     6       C          1.20554087  *  -1.00935815  *  -0.53787612  *
     7       C          2.58855342  *  -0.97454432  *  -0.36150712  *
     8       C          3.17634388  *   0.04472599  *   0.38161196  *
     9       C          2.37222322  *   1.03203586  *   0.94941830  *
    10       C          0.99285550  *   0.99613996  *   0.77274915  *
    11       H         -1.19926104  *  -1.18995495  *  -1.99543613  *
    12       H         -2.70996186  *  -1.18141127  *  -1.08588198  *
    13       H         -1.36197208  *  -2.16944196  *  -0.52346802  *
    14       H         -1.52003229  *   0.75381031  *   1.87228620  *
    15       H         -1.43577464  *  -1.00751245  *   1.78670443  *
    16       H         -2.86051145  *  -0.15596790  *   1.17227471  *
    17       H         -2.61789655  *   1.30073103  *  -1.01769906  *
    18       H         -1.28556489  *   2.16144807  *  -0.24392592  *
    19       H         -1.03741211  *   1.38489850  *  -1.80981761  *
    20       H          0.77561322  *  -1.81864409  *  -1.12378267  *
    21       H          3.20793814  *  -1.74979516  *  -0.80847987  *
    22       H          4.25467103  *   0.07150177  *   0.51889195  *
    23       H          2.82419042  *   1.83229637  *   1.53193968  *
    24       H          0.37752537  *   1.77343511  *   1.22181299  *

                             CARTESIAN COORDINATES

   1    C       -1.619465891    -1.209570453    -0.984072208
   2    C       -1.115242055    -0.025827140    -0.140759736
   3    C       -1.769585045    -0.111969033     1.250780876
   4    C       -1.537860280     1.279272885    -0.840799472
   5    C        0.392239251    -0.025838844     0.026247565
   6    C        1.205540875    -1.009358150    -0.537876121
   7    C        2.588553419    -0.974544322    -0.361507116
   8    C        3.176343880     0.044725989     0.381611956
   9    C        2.372223222     1.032035857     0.949418303
  10    C        0.992855501     0.996139961     0.772749148
  11    H       -1.199261040    -1.189954948    -1.995436134
  12    H       -2.709961859    -1.181411265    -1.085881984
  13    H       -1.361972083    -2.169441961    -0.523468022
  14    H       -1.520032287     0.753810313     1.872286203
  15    H       -1.435774640    -1.007512445     1.786704431
  16    H       -2.860511447    -0.155967898     1.172274706
  17    H       -2.617896545     1.300731027    -1.017699057
  18    H       -1.285564885     2.161448068    -0.243925917
  19    H       -1.037412107     1.384898495    -1.809817607
  20    H        0.775613222    -1.818644088    -1.123782674
  21    H        3.207938142    -1.749795157    -0.808479874
  22    H        4.254671029     0.071501774     0.518891953
  23    H        2.824190415     1.832296375     1.531939676
  24    H        0.377525370     1.773435114     1.221812989


           Empirical Formula: C10 H14  =    24 atoms



      MOLECULAR POINT GROUP   :   Cs  


                  EIGENVALUES  
 -30.72246 -29.20272 -25.91867 -25.13862 -23.99080 -23.95327 -21.14579 -20.54462
 -18.71616 -17.38396 -15.55444 -15.37776 -15.12881 -14.82438 -14.36340 -14.07486
 -13.64648 -13.04147 -12.93405 -12.70922 -12.63256 -12.11919 -11.81021 -11.34199
 -11.23027  -9.68167  -9.39755   0.38786   0.40539   2.70053   3.88795   3.95324
   4.19779   4.68492   4.74232   5.05039   5.25794   5.48405   5.51698   5.73437
   5.85087   5.87755   5.90321   5.93208   5.97520   5.98326   6.07005   6.26401
   6.34810   6.38242   6.52801   6.96602   7.10864   7.11579


              NET ATOMIC CHARGES AND DIPOLE CONTRIBUTIONS

  ATOM NO.   TYPE          CHARGE      No. of ELECS.   s-Pop       p-Pop       
    1          C          -0.461525        4.4615     1.05933     3.40220
    2          C           0.106452        3.8935     1.05026     2.84329
    3          C          -0.458154        4.4582     1.05941     3.39875
    4          C          -0.458154        4.4582     1.05941     3.39875
    5          C          -0.002405        4.0024     1.08350     2.91890
    6          C          -0.178797        4.1788     1.08338     3.09541
    7          C          -0.139736        4.1397     1.08341     3.05633
    8          C          -0.165151        4.1652     1.08119     3.08396
    9          C          -0.140061        4.1401     1.08301     3.05706
   10          C          -0.176836        4.1768     1.08362     3.09321
   11          H           0.147466        0.8525     0.85253
   12          H           0.148079        0.8519     0.85192
   13          H           0.147463        0.8525     0.85254
   14          H           0.145790        0.8542     0.85421
   15          H           0.149525        0.8505     0.85047
   16          H           0.147302        0.8527     0.85270
   17          H           0.147303        0.8527     0.85270
   18          H           0.145791        0.8542     0.85421
   19          H           0.149522        0.8505     0.85048
   20          H           0.153401        0.8466     0.84660
   21          H           0.146997        0.8530     0.85300
   22          H           0.148484        0.8515     0.85152
   23          H           0.147129        0.8529     0.85287
   24          H           0.150116        0.8499     0.84988
 DIPOLE           X         Y         Z       TOTAL
 POINT-CHG.    -0.658    -0.003    -0.075     0.662
 HYBRID        -0.041     0.016     0.006     0.044
 SUM           -0.698     0.012    -0.069     0.702


          ATOMIC ORBITAL ELECTRON POPULATIONS

     Atom    s        px        py        pz   
    1  C   1.05933   1.16354   1.10183   1.13683
    2  C   1.05026   0.93853   0.95355   0.95121
    3  C   1.05941   1.15128   1.17869   1.06878
    4  C   1.05941   1.16553   1.08041   1.15281
    5  C   1.08350   0.98434   0.97180   0.96276
    6  C   1.08338   1.00299   1.05126   1.04116
    7  C   1.08341   1.01520   1.03421   1.00692
    8  C   1.08119   1.07454   0.99844   1.01098
    9  C   1.08301   1.00213   1.03739   1.01753
   10  C   1.08362   1.01781   1.04661   1.02879
   11  H   0.85253
   12  H   0.85192
   13  H   0.85254
   14  H   0.85421
   15  H   0.85047
   16  H   0.85270
   17  H   0.85270
   18  H   0.85421
   19  H   0.85048
   20  H   0.84660
   21  H   0.85300
   22  H   0.85152
   23  H   0.85287
   24  H   0.84988

 **********************
 *                    *
 * JOB ENDED NORMALLY *
 *                    *
 **********************



 TOTAL JOB TIME:             0.29 SECONDS

 == MOPAC DONE ==
