 *******************************************************************************
 **                                                                           **
 **                              MOPAC v23.0.3                                **
 **                                                                           **
 *******************************************************************************
 **          Digital Object Identifier (DOI): 10.5281/zenodo.6511958          **
 **    Visit the DOI location for information on how to cite this program.    **
 *******************************************************************************

                              PM7 CALCULATION RESULTS

 *******************************************************************************
 *  CALCULATION DONE:                                Fri Jul 25 15:22:42 2025  *
 *  PM7        - The PM7 Hamiltonian to be used
 *  XYZ        - CARTESIAN COORDINATE SYSTEM TO BE USED
 *  T=         - A TIME OF 172800.0 SECONDS REQUESTED
 *  DUMP=N     - RESTART FILE WRITTEN EVERY 7200.0 SECONDS REQUESTED
 *******************************************************************************
PM7 XYZ

 freesolv_231 - geometry optimisation
   ATOM   CHEMICAL          X               Y               Z
  NUMBER   SYMBOL      (ANGSTROMS)     (ANGSTROMS)     (ANGSTROMS)

     1       C          3.41236400  *  -0.53254500  *   0.28609700  *
     2       C          2.24413700  *   0.40308000  *  -0.01148400  *
     3       C          0.90716100  *  -0.34620400  *   0.03731300  *
     4       C         -0.26674900  *   0.60373500  *  -0.24841800  *
     5       C         -1.61989300  *  -0.13412300  *  -0.36370000  *
     6       C         -2.69491700  *   0.82107200  *  -0.89853600  *
     7       C         -2.06976300  *  -0.72231700  *   0.98246800  *
     8       H          3.45220400  *  -1.35076000  *  -0.46424800  *
     9       H          4.36485900  *   0.03645700  *   0.24187400  *
    10       H          3.30725900  *  -0.97047300  *   1.30160200  *
    11       H          2.38923200  *   0.84773100  *  -1.02022000  *
    12       H          2.24093500  *   1.22428600  *   0.73819700  *
    13       H          0.91675600  *  -1.16183000  *  -0.71886000  *
    14       H          0.78801500  *  -0.79639800  *   1.04573600  *
    15       H         -0.06373700  *   1.12756100  *  -1.20904500  *
    16       H         -0.32415700  *   1.37575400  *   0.55078300  *
    17       H         -1.51692500  *  -0.96714400  *  -1.09421200  *
    18       H         -2.83852500  *   1.67714100  *  -0.20441600  *
    19       H         -2.40038900  *   1.21279400  *  -1.89556100  *
    20       H         -3.66209000  *   0.28675600  *  -1.01472600  *
    21       H         -3.07979400  *  -1.17495200  *   0.88587300  *
    22       H         -1.37944900  *  -1.52655300  *   1.30970800  *
    23       H         -2.10653400  *   0.06693100  *   1.76377600  *



          CARTESIAN COORDINATES 

    NO.       ATOM           X           Y           Z

     1         C          3.4124     -0.5325      0.2861
     2         C          2.2441      0.4031     -0.0115
     3         C          0.9072     -0.3462      0.0373
     4         C         -0.2667      0.6037     -0.2484
     5         C         -1.6199     -0.1341     -0.3637
     6         C         -2.6949      0.8211     -0.8985
     7         C         -2.0698     -0.7223      0.9825
     8         H          3.4522     -1.3508     -0.4642
     9         H          4.3649      0.0365      0.2419
    10         H          3.3073     -0.9705      1.3016
    11         H          2.3892      0.8477     -1.0202
    12         H          2.2409      1.2243      0.7382
    13         H          0.9168     -1.1618     -0.7189
    14         H          0.7880     -0.7964      1.0457
    15         H         -0.0637      1.1276     -1.2090
    16         H         -0.3242      1.3758      0.5508
    17         H         -1.5169     -0.9671     -1.0942
    18         H         -2.8385      1.6771     -0.2044
    19         H         -2.4004      1.2128     -1.8956
    20         H         -3.6621      0.2868     -1.0147
    21         H         -3.0798     -1.1750      0.8859
    22         H         -1.3794     -1.5266      1.3097
    23         H         -2.1065      0.0669      1.7638

 General Reference for PM7:
 "Optimization of Parameters for Semiempirical Methods VI: More Modifications to the 
 NDDO Approximations and Re-optimization of Parameters", J. J. P. Stewart, J. Mol. Mod., 1:32, 19 (2013)
 https://link.springer.com/article/10.1007/s00894-012-1667-x

           Empirical Formula: C7 H16  =    23 atoms



      MOLECULAR POINT GROUP   :   C1  


      RHF CALCULATION, NO. OF DOUBLY OCCUPIED LEVELS = 22


          Geometry optimization using EF

          DIAGONAL MATRIX USED AS START HESSIAN

 CYCLE:     1 TIME:   0.012 TIME LEFT:  2.00D  GRAD.:    35.736 HEAT: -42.19037
 CYCLE:     2 TIME:   0.020 TIME LEFT:  2.00D  GRAD.:    43.073 HEAT: -42.68007
 CYCLE:     3 TIME:   0.016 TIME LEFT:  2.00D  GRAD.:    20.333 HEAT: -43.36288
 CYCLE:     4 TIME:   0.012 TIME LEFT:  2.00D  GRAD.:    12.959 HEAT: -43.54629
 CYCLE:     5 TIME:   0.016 TIME LEFT:  2.00D  GRAD.:     6.588 HEAT: -43.62576
 CYCLE:     6 TIME:   0.016 TIME LEFT:  2.00D  GRAD.:     5.601 HEAT: -43.64890
 CYCLE:     7 TIME:   0.004 TIME LEFT:  2.00D  GRAD.:     3.177 HEAT: -43.66913
 CYCLE:     8 TIME:   0.016 TIME LEFT:  2.00D  GRAD.:     3.877 HEAT: -43.67601
 CYCLE:     9 TIME:   0.008 TIME LEFT:  2.00D  GRAD.:     2.681 HEAT: -43.68350
 CYCLE:    10 TIME:   0.004 TIME LEFT:  2.00D  GRAD.:     3.349 HEAT: -43.69009
 CYCLE:    11 TIME:   0.012 TIME LEFT:  2.00D  GRAD.:     3.217 HEAT: -43.69537
 CYCLE:    12 TIME:   0.016 TIME LEFT:  2.00D  GRAD.:     2.830 HEAT: -43.69942
 CYCLE:    13 TIME:   0.004 TIME LEFT:  2.00D  GRAD.:     3.560 HEAT: -43.70024
 CYCLE:    14 TIME:   0.008 TIME LEFT:  2.00D  GRAD.:     3.584 HEAT: -43.70441
 CYCLE:    15 TIME:   0.027 TIME LEFT:  2.00D  GRAD.:     1.021 HEAT: -43.70939
 CYCLE:    16 TIME:   0.012 TIME LEFT:  2.00D  GRAD.:     2.225 HEAT: -43.70890
 CYCLE:    17 TIME:   0.008 TIME LEFT:  2.00D  GRAD.:     1.362 HEAT: -43.71170
 CYCLE:    18 TIME:   0.008 TIME LEFT:  2.00D  GRAD.:     3.954 HEAT: -43.70702
 CYCLE:    19 TIME:   0.012 TIME LEFT:  2.00D  GRAD.:     1.459 HEAT: -43.71393
 CYCLE:    20 TIME:   0.008 TIME LEFT:  2.00D  GRAD.:     4.989 HEAT: -43.70505
 CYCLE:    21 TIME:   0.012 TIME LEFT:  2.00D  GRAD.:     1.408 HEAT: -43.71572
 CYCLE:    22 TIME:   0.023 TIME LEFT:  2.00D  GRAD.:     3.329 HEAT: -43.71264
 CYCLE:    23 TIME:   0.012 TIME LEFT:  2.00D  GRAD.:     0.995 HEAT: -43.71757

     GRADIENT =  0.99525 IS LESS THAN CUTOFF =  1.00000



 -------------------------------------------------------------------------------
 PM7 XYZ

 freesolv_231 - geometry optimisation


     GEOMETRY OPTIMISED USING EIGENVECTOR FOLLOWING (EF).     
     SCF FIELD WAS ACHIEVED                                   


                              PM7 CALCULATION
                                                       MOPAC v23.0.3 Linux
                                                       Fri Jul 25 15:22:42 2025




          FINAL HEAT OF FORMATION =        -43.71757 KCAL/MOL =    -182.91431 KJ/MOL


          COSMO AREA              =        172.11 SQUARE ANGSTROMS
          COSMO VOLUME            =        167.13 CUBIC ANGSTROMS

          GRADIENT NORM           =          0.99525          =       0.20752 PER ATOM
          IONIZATION POTENTIAL    =         10.993808 EV
          HOMO LUMO ENERGIES (EV) =        -10.994  3.980
          NO. OF FILLED LEVELS    =         22
          MOLECULAR WEIGHT        =        100.2034         POINT GROUP:  C1  

          MOLECULAR DIMENSIONS (Angstroms)

            Atom       Atom       Distance
            H    20    H     9     8.11161
            H    19    H    22     4.00664
            H    16    H     8     2.96934


          SCF CALCULATIONS        =         35

          WALL-CLOCK TIME         =      0.309 SECONDS
          COMPUTATION TIME        =      3.121 SECONDS




   ATOM   CHEMICAL          X               Y               Z
  NUMBER   SYMBOL      (ANGSTROMS)     (ANGSTROMS)     (ANGSTROMS)

     1       C          3.39997494  *  -0.53297607  *   0.28787481  *
     2       C          2.23169230  *   0.40618744  *  -0.01010479  *
     3       C          0.89607485  *  -0.34863921  *   0.03378792  *
     4       C         -0.27021512  *   0.60516131  *  -0.25076387  *
     5       C         -1.61169024  *  -0.14228928  *  -0.37158354  *
     6       C         -2.68563987  *   0.81885465  *  -0.90103693  *
     7       C         -2.04805743  *  -0.71850632  *   0.98024994  *
     8       H          3.45117884  *  -1.35105299  *  -0.43938669  *
     9       H          4.35610827  *   0.00019556  *   0.25221132  *
    10       H          3.30924903  *  -0.98174147  *   1.28314030  *
    11       H          2.36747403  *   0.87509471  *  -1.00266046  *
    12       H          2.21861839  *   1.23771641  *   0.71893176  *
    13       H          0.90318867  *  -1.17325468  *  -0.70218020  *
    14       H          0.76549674  *  -0.82654394  *   1.02163269  *
    15       H         -0.07413754  *   1.16130215  *  -1.18694086  *
    16       H         -0.33603223  *   1.36980583  *   0.54482609  *
    17       H         -1.49235122  *  -0.98074067  *  -1.09952096  *
    18       H         -2.83347771  *   1.66532949  *  -0.22164571  *
    19       H         -2.41134447  *   1.22316811  *  -1.88110868  *
    20       H         -3.65029944  *   0.31289216  *  -1.01184106  *
    21       H         -3.03920874  *  -1.17946120  *   0.91399685  *
    22       H         -1.35054148  *  -1.48731442  *   1.32979909  *
    23       H         -2.09556877  *   0.05884005  *   1.74988117  *

                             CARTESIAN COORDINATES

   1    C        3.399974938    -0.532976066     0.287874807
   2    C        2.231692300     0.406187436    -0.010104786
   3    C        0.896074846    -0.348639212     0.033787924
   4    C       -0.270215119     0.605161314    -0.250763867
   5    C       -1.611690235    -0.142289283    -0.371583543
   6    C       -2.685639866     0.818854648    -0.901036931
   7    C       -2.048057426    -0.718506320     0.980249939
   8    H        3.451178837    -1.351052991    -0.439386693
   9    H        4.356108274     0.000195559     0.252211323
  10    H        3.309249025    -0.981741466     1.283140297
  11    H        2.367474025     0.875094714    -1.002660463
  12    H        2.218618388     1.237716410     0.718931760
  13    H        0.903188674    -1.173254678    -0.702180200
  14    H        0.765496740    -0.826543942     1.021632685
  15    H       -0.074137537     1.161302147    -1.186940863
  16    H       -0.336032234     1.369805833     0.544826093
  17    H       -1.492351220    -0.980740666    -1.099520955
  18    H       -2.833477709     1.665329486    -0.221645712
  19    H       -2.411344471     1.223168114    -1.881108678
  20    H       -3.650299444     0.312892161    -1.011841059
  21    H       -3.039208743    -1.179461199     0.913996850
  22    H       -1.350541483    -1.487314418     1.329799085
  23    H       -2.095568768     0.058840053     1.749881165


           Empirical Formula: C7 H16  =    23 atoms



      MOLECULAR POINT GROUP   :   C1  


                  EIGENVALUES  
 -29.59150 -27.85010 -24.83031 -23.85897 -21.46747 -19.92303 -19.00893 -16.38849
 -15.52973 -15.07089 -14.81052 -14.01309 -13.51837 -13.28390 -13.08991 -12.39348
 -12.22220 -11.98529 -11.50573 -11.25562 -11.06821 -10.99381   3.97957   4.18575
   4.40012   4.58166   4.93222   4.97679   5.49180   5.81870   5.88395   5.93536
   5.95921   5.99249   6.02680   6.13165   6.32719   6.42271   6.71716   6.81248
   6.83518   7.09468   7.10771   7.20874


              NET ATOMIC CHARGES AND DIPOLE CONTRIBUTIONS

  ATOM NO.   TYPE          CHARGE      No. of ELECS.   s-Pop       p-Pop       
    1          C          -0.438838        4.4388     1.05193     3.38691
    2          C          -0.251348        4.2513     1.05545     3.19590
    3          C          -0.271297        4.2713     1.05968     3.21162
    4          C          -0.291152        4.2912     1.06405     3.22710
    5          C          -0.059348        4.0593     1.05692     3.00243
    6          C          -0.456540        4.4565     1.05676     3.39978
    7          C          -0.453140        4.4531     1.05581     3.39733
    8          H           0.142111        0.8579     0.85789
    9          H           0.139460        0.8605     0.86054
   10          H           0.142012        0.8580     0.85799
   11          H           0.133236        0.8668     0.86676
   12          H           0.133460        0.8665     0.86654
   13          H           0.135904        0.8641     0.86410
   14          H           0.137260        0.8627     0.86274
   15          H           0.136366        0.8636     0.86363
   16          H           0.138166        0.8618     0.86183
   17          H           0.128354        0.8716     0.87165
   18          H           0.144426        0.8556     0.85557
   19          H           0.141076        0.8589     0.85892
   20          H           0.142218        0.8578     0.85778
   21          H           0.141652        0.8583     0.85835
   22          H           0.141620        0.8584     0.85838
   23          H           0.144344        0.8557     0.85566
 DIPOLE           X         Y         Z       TOTAL
 POINT-CHG.    -0.006    -0.010    -0.035     0.037
 HYBRID        -0.021     0.038     0.092     0.102
 SUM           -0.027     0.028     0.058     0.070


          ATOMIC ORBITAL ELECTRON POPULATIONS

     Atom    s        px        py        pz   
    1  C   1.05193   1.09292   1.12528   1.16871
    2  C   1.05545   0.98333   1.05999   1.15258
    3  C   1.05968   0.98568   1.06646   1.15947
    4  C   1.06405   0.99856   1.07004   1.15850
    5  C   1.05692   0.96070   1.03074   1.01098
    6  C   1.05676   1.11395   1.12968   1.15615
    7  C   1.05581   1.15924   1.15561   1.08248
    8  H   0.85789
    9  H   0.86054
   10  H   0.85799
   11  H   0.86676
   12  H   0.86654
   13  H   0.86410
   14  H   0.86274
   15  H   0.86363
   16  H   0.86183
   17  H   0.87165
   18  H   0.85557
   19  H   0.85892
   20  H   0.85778
   21  H   0.85835
   22  H   0.85838
   23  H   0.85566

 **********************
 *                    *
 * JOB ENDED NORMALLY *
 *                    *
 **********************



 TOTAL JOB TIME:             0.31 SECONDS

 == MOPAC DONE ==
