 *******************************************************************************
 **                                                                           **
 **                              MOPAC v23.0.3                                **
 **                                                                           **
 *******************************************************************************
 **          Digital Object Identifier (DOI): 10.5281/zenodo.6511958          **
 **    Visit the DOI location for information on how to cite this program.    **
 *******************************************************************************

                              PM7 CALCULATION RESULTS

 *******************************************************************************
 *  CALCULATION DONE:                                Fri Jul 25 17:57:06 2025  *
 *  PM7        - The PM7 Hamiltonian to be used
 *  XYZ        - CARTESIAN COORDINATE SYSTEM TO BE USED
 *  T=         - A TIME OF 172800.0 SECONDS REQUESTED
 *  DUMP=N     - RESTART FILE WRITTEN EVERY 7200.0 SECONDS REQUESTED
 *******************************************************************************
PM7 XYZ

 Lipophilicity_1704 - geometry optimisation
   ATOM   CHEMICAL          X               Y               Z
  NUMBER   SYMBOL      (ANGSTROMS)     (ANGSTROMS)     (ANGSTROMS)

     1       C          6.02845700  *  -0.75619700  *   0.26450300  *
     2       O          4.94530100  *  -0.22232800  *  -0.46272600  *
     3       C          3.86027600  *   0.00420300  *   0.41278600  *
     4       C          2.67063900  *   0.55820000  *  -0.37276700  *
     5       C          2.12679200  *  -0.46827600  *  -1.37983500  *
     6       C          0.94644300  *   0.08533000  *  -2.19134500  *
     7       C         -0.25609100  *   0.36291200  *  -1.32555200  *
     8       N         -0.66130600  *   1.59136800  *  -1.20006200  *
     9       O         -1.76079200  *   1.93123500  *  -0.44311200  *
    10       C         -2.15700000  *   3.28737400  *  -0.31945500  *
    11       C         -3.38234700  *   3.37892200  *   0.58339600  *
    12       N         -3.78674000  *   4.77157500  *   0.74592200  *
    13       C         -0.92911600  *  -0.74653300  *  -0.60476100  *
    14       C         -1.30345800  *  -1.91532800  *  -1.28578500  *
    15       C         -1.91391500  *  -2.96939400  *  -0.60003300  *
    16       C         -2.17127800  *  -2.86989100  *   0.77781100  *
    17       C         -1.76209800  *  -1.71462100  *   1.46487500  *
    18       C         -1.15243100  *  -0.66073800  *   0.77891200  *
    19       C         -2.78304500  *  -4.02721700  *   1.52624200  *
    20       F         -1.77744300  *  -4.86893700  *   1.96329400  *
    21       F         -3.64304200  *  -4.73881900  *   0.70764600  *
    22       F         -3.50152900  *  -3.57666800  *   2.62026300  *
    23       H          6.87627200  *  -0.91800500  *  -0.43232200  *
    24       H          6.37199900  *  -0.05087100  *   1.05379900  *
    25       H          5.76709300  *  -1.74178000  *   0.71012500  *
    26       H          4.13805900  *   0.75567800  *   1.18696800  *
    27       H          3.54834200  *  -0.93812500  *   0.92026600  *
    28       H          2.98363000  *   1.48171300  *  -0.90738900  *
    29       H          1.87138800  *   0.83082300  *   0.35015900  *
    30       H          2.93439200  *  -0.74609400  *  -2.09143500  *
    31       H          1.81523300  *  -1.39348000  *  -0.84700800  *
    32       H          0.67300300  *  -0.64833300  *  -2.97808000  *
    33       H          1.26540700  *   1.01250400  *  -2.71738400  *
    34       H         -1.32289800  *   3.87612800  *   0.12033900  *
    35       H         -2.39804400  *   3.69333400  *  -1.32576700  *
    36       H         -4.21782700  *   2.78893000  *   0.14419600  *
    37       H         -3.13233800  *   2.95047000  *   1.57881100  *
    38       H         -4.17583800  *   5.10750600  *  -0.16526800  *
    39       H         -4.57600300  *   4.79504100  *   1.43151600  *
    40       H         -1.13395300  *  -2.01208600  *  -2.35025300  *
    41       H         -2.18378900  *  -3.86369400  *  -1.14764800  *
    42       H         -1.90670100  *  -1.62920600  *   2.53457400  *
    43       H         -0.83370700  *   0.21337500  *   1.33340900  *



          CARTESIAN COORDINATES 

    NO.       ATOM           X           Y           Z

     1         C          6.0285     -0.7562      0.2645
     2         O          4.9453     -0.2223     -0.4627
     3         C          3.8603      0.0042      0.4128
     4         C          2.6706      0.5582     -0.3728
     5         C          2.1268     -0.4683     -1.3798
     6         C          0.9464      0.0853     -2.1913
     7         C         -0.2561      0.3629     -1.3256
     8         N         -0.6613      1.5914     -1.2001
     9         O         -1.7608      1.9312     -0.4431
    10         C         -2.1570      3.2874     -0.3195
    11         C         -3.3823      3.3789      0.5834
    12         N         -3.7867      4.7716      0.7459
    13         C         -0.9291     -0.7465     -0.6048
    14         C         -1.3035     -1.9153     -1.2858
    15         C         -1.9139     -2.9694     -0.6000
    16         C         -2.1713     -2.8699      0.7778
    17         C         -1.7621     -1.7146      1.4649
    18         C         -1.1524     -0.6607      0.7789
    19         C         -2.7830     -4.0272      1.5262
    20         F         -1.7774     -4.8689      1.9633
    21         F         -3.6430     -4.7388      0.7076
    22         F         -3.5015     -3.5767      2.6203
    23         H          6.8763     -0.9180     -0.4323
    24         H          6.3720     -0.0509      1.0538
    25         H          5.7671     -1.7418      0.7101
    26         H          4.1381      0.7557      1.1870
    27         H          3.5483     -0.9381      0.9203
    28         H          2.9836      1.4817     -0.9074
    29         H          1.8714      0.8308      0.3502
    30         H          2.9344     -0.7461     -2.0914
    31         H          1.8152     -1.3935     -0.8470
    32         H          0.6730     -0.6483     -2.9781
    33         H          1.2654      1.0125     -2.7174
    34         H         -1.3229      3.8761      0.1203
    35         H         -2.3980      3.6933     -1.3258
    36         H         -4.2178      2.7889      0.1442
    37         H         -3.1323      2.9505      1.5788
    38         H         -4.1758      5.1075     -0.1653
    39         H         -4.5760      4.7950      1.4315
    40         H         -1.1340     -2.0121     -2.3503
    41         H         -2.1838     -3.8637     -1.1476
    42         H         -1.9067     -1.6292      2.5346
    43         H         -0.8337      0.2134      1.3334

 General Reference for PM7:
 "Optimization of Parameters for Semiempirical Methods VI: More Modifications to the 
 NDDO Approximations and Re-optimization of Parameters", J. J. P. Stewart, J. Mol. Mod., 1:32, 19 (2013)
 https://link.springer.com/article/10.1007/s00894-012-1667-x

           Empirical Formula: C15 H21 N2 O2 F3  =    43 atoms



      MOLECULAR POINT GROUP   :   C1  


      RHF CALCULATION, NO. OF DOUBLY OCCUPIED LEVELS = 62


          Geometry optimization using L-BFGS
 CYCLE:     1 TIME:   0.043 TIME LEFT:  2.00D  GRAD.:   198.329 HEAT: -168.0245
 CYCLE:     2 TIME:   0.023 TIME LEFT:  2.00D  GRAD.:   195.635 HEAT: -168.4151
 CYCLE:     3 TIME:   0.027 TIME LEFT:  2.00D  GRAD.:    63.780 HEAT: -184.7465
 CYCLE:     4 TIME:   0.031 TIME LEFT:  2.00D  GRAD.:   195.839 HEAT: -168.4176
 CYCLE:     5 TIME:   0.027 TIME LEFT:  2.00D  GRAD.:    63.853 HEAT: -184.7471
 CYCLE:     6 TIME:   0.027 TIME LEFT:  2.00D  GRAD.:    38.404 HEAT: -186.2452
 CYCLE:     7 TIME:   0.023 TIME LEFT:  2.00D  GRAD.:    32.942 HEAT: -187.4041
 CYCLE:     8 TIME:   0.027 TIME LEFT:  2.00D  GRAD.:    42.015 HEAT: -188.5001
 CYCLE:     9 TIME:   0.031 TIME LEFT:  2.00D  GRAD.:    43.501 HEAT: -189.1300
 CYCLE:    10 TIME:   0.031 TIME LEFT:  2.00D  GRAD.:    22.772 HEAT: -189.6420
 CYCLE:    11 TIME:   0.027 TIME LEFT:  2.00D  GRAD.:    17.982 HEAT: -190.0871
 CYCLE:    12 TIME:   0.023 TIME LEFT:  2.00D  GRAD.:    20.340 HEAT: -190.3590
 CYCLE:    13 TIME:   0.027 TIME LEFT:  2.00D  GRAD.:    28.395 HEAT: -190.5853
 CYCLE:    14 TIME:   0.027 TIME LEFT:  2.00D  GRAD.:    13.237 HEAT: -190.8087
 CYCLE:    15 TIME:   0.023 TIME LEFT:  2.00D  GRAD.:    14.246 HEAT: -190.9791
 CYCLE:    16 TIME:   0.023 TIME LEFT:  2.00D  GRAD.:    15.677 HEAT: -191.1737
 CYCLE:    17 TIME:   0.027 TIME LEFT:  2.00D  GRAD.:    15.658 HEAT: -191.4727
 CYCLE:    18 TIME:   0.027 TIME LEFT:  2.00D  GRAD.:    51.558 HEAT: -191.1328
 CYCLE:    19 TIME:   0.027 TIME LEFT:  2.00D  GRAD.:     7.971 HEAT: -191.6691
 CYCLE:    20 TIME:   0.027 TIME LEFT:  2.00D  GRAD.:     6.166 HEAT: -191.7098
 CYCLE:    21 TIME:   0.023 TIME LEFT:  2.00D  GRAD.:     8.473 HEAT: -191.7699
 CYCLE:    22 TIME:   0.023 TIME LEFT:  2.00D  GRAD.:    10.722 HEAT: -191.8432
 CYCLE:    23 TIME:   0.027 TIME LEFT:  2.00D  GRAD.:    16.818 HEAT: -191.8850
 CYCLE:    24 TIME:   0.023 TIME LEFT:  2.00D  GRAD.:     5.698 HEAT: -191.9668
 CYCLE:    25 TIME:   0.023 TIME LEFT:  2.00D  GRAD.:     5.234 HEAT: -191.9923
 CYCLE:    26 TIME:   0.023 TIME LEFT:  2.00D  GRAD.:     5.809 HEAT: -192.0275
 CYCLE:    27 TIME:   0.027 TIME LEFT:  2.00D  GRAD.:    16.732 HEAT: -192.0341
 CYCLE:    28 TIME:   0.023 TIME LEFT:  2.00D  GRAD.:     4.816 HEAT: -192.0848
 CYCLE:    29 TIME:   0.023 TIME LEFT:  2.00D  GRAD.:     3.125 HEAT: -192.0963
 CYCLE:    30 TIME:   0.023 TIME LEFT:  2.00D  GRAD.:     3.706 HEAT: -192.1097
 CYCLE:    31 TIME:   0.023 TIME LEFT:  2.00D  GRAD.:     6.357 HEAT: -192.1221
 CYCLE:    32 TIME:   0.027 TIME LEFT:  2.00D  GRAD.:     3.186 HEAT: -192.1346
 CYCLE:    33 TIME:   0.023 TIME LEFT:  2.00D  GRAD.:     2.412 HEAT: -192.1436
 CYCLE:    34 TIME:   0.027 TIME LEFT:  2.00D  GRAD.:     2.836 HEAT: -192.1505
 CYCLE:    35 TIME:   0.023 TIME LEFT:  2.00D  GRAD.:     6.114 HEAT: -192.1566
 CYCLE:    36 TIME:   0.023 TIME LEFT:  2.00D  GRAD.:     2.491 HEAT: -192.1662
 CYCLE:    37 TIME:   0.023 TIME LEFT:  2.00D  GRAD.:     2.248 HEAT: -192.1718
 CYCLE:    38 TIME:   0.023 TIME LEFT:  2.00D  GRAD.:     2.424 HEAT: -192.1770
 CYCLE:    39 TIME:   0.027 TIME LEFT:  2.00D  GRAD.:     5.228 HEAT: -192.1835
 CYCLE:    40 TIME:   0.023 TIME LEFT:  2.00D  GRAD.:     2.098 HEAT: -192.1900
 CYCLE:    41 TIME:   0.023 TIME LEFT:  2.00D  GRAD.:     1.437 HEAT: -192.1924
 CYCLE:    42 TIME:   0.027 TIME LEFT:  2.00D  GRAD.:     1.599 HEAT: -192.1953
 CYCLE:    43 TIME:   0.023 TIME LEFT:  2.00D  GRAD.:     3.285 HEAT: -192.1976
 CYCLE:    44 TIME:   0.023 TIME LEFT:  2.00D  GRAD.:     1.916 HEAT: -192.2006
 CYCLE:    45 TIME:   0.027 TIME LEFT:  2.00D  GRAD.:     1.544 HEAT: -192.2038
 CYCLE:    46 TIME:   0.023 TIME LEFT:  2.00D  GRAD.:     2.102 HEAT: -192.2062
 CYCLE:    47 TIME:   0.023 TIME LEFT:  2.00D  GRAD.:     2.400 HEAT: -192.2097
 CYCLE:    48 TIME:   0.023 TIME LEFT:  2.00D  GRAD.:     1.824 HEAT: -192.2130
 CYCLE:    49 TIME:   0.027 TIME LEFT:  2.00D  GRAD.:     1.448 HEAT: -192.2155
 CYCLE:    50 TIME:   0.023 TIME LEFT:  2.00D  GRAD.:     1.647 HEAT: -192.2178
 CYCLE:    51 TIME:   0.023 TIME LEFT:  2.00D  GRAD.:     1.457 HEAT: -192.2203
 CYCLE:    52 TIME:   0.027 TIME LEFT:  2.00D  GRAD.:     2.200 HEAT: -192.2228
 CYCLE:    53 TIME:   0.023 TIME LEFT:  2.00D  GRAD.:     1.650 HEAT: -192.2249
 CYCLE:    54 TIME:   0.023 TIME LEFT:  2.00D  GRAD.:     1.433 HEAT: -192.2262
 CYCLE:    55 TIME:   0.027 TIME LEFT:  2.00D  GRAD.:     1.632 HEAT: -192.2286
 CYCLE:    56 TIME:   0.023 TIME LEFT:  2.00D  GRAD.:     2.788 HEAT: -192.2303
 CYCLE:    57 TIME:   0.027 TIME LEFT:  2.00D  GRAD.:     1.564 HEAT: -192.2326
 CYCLE:    58 TIME:   0.023 TIME LEFT:  2.00D  GRAD.:     1.206 HEAT: -192.2350
 CYCLE:    59 TIME:   0.027 TIME LEFT:  2.00D  GRAD.:     1.556 HEAT: -192.2373
 CYCLE:    60 TIME:   0.027 TIME LEFT:  2.00D  GRAD.:     2.918 HEAT: -192.2394
 CYCLE:    61 TIME:   0.023 TIME LEFT:  2.00D  GRAD.:     1.516 HEAT: -192.2420
 CYCLE:    62 TIME:   0.023 TIME LEFT:  2.00D  GRAD.:     1.098 HEAT: -192.2431
 CYCLE:    63 TIME:   0.027 TIME LEFT:  2.00D  GRAD.:     1.019 HEAT: -192.2445
 CYCLE:    64 TIME:   0.031 TIME LEFT:  2.00D  GRAD.:     1.891 HEAT: -192.2460
 CYCLE:    65 TIME:   0.027 TIME LEFT:  2.00D  GRAD.:     1.275 HEAT: -192.2475
 CYCLE:    66 TIME:   0.023 TIME LEFT:  2.00D  GRAD.:     1.210 HEAT: -192.2490
 CYCLE:    67 TIME:   0.027 TIME LEFT:  2.00D  GRAD.:     1.309 HEAT: -192.2508
 CYCLE:    68 TIME:   0.027 TIME LEFT:  2.00D  GRAD.:     1.707 HEAT: -192.2529
 CYCLE:    69 TIME:   0.027 TIME LEFT:  2.00D  GRAD.:     1.992 HEAT: -192.2550
 CYCLE:    70 TIME:   0.027 TIME LEFT:  2.00D  GRAD.:     1.425 HEAT: -192.2572
 CYCLE:    71 TIME:   0.027 TIME LEFT:  2.00D  GRAD.:     1.853 HEAT: -192.2601
 CYCLE:    72 TIME:   0.023 TIME LEFT:  2.00D  GRAD.:     2.227 HEAT: -192.2634
 CYCLE:    73 TIME:   0.027 TIME LEFT:  2.00D  GRAD.:     2.458 HEAT: -192.2666
 CYCLE:    74 TIME:   0.027 TIME LEFT:  2.00D  GRAD.:     1.696 HEAT: -192.2702
 CYCLE:    75 TIME:   0.039 TIME LEFT:  2.00D  GRAD.:     1.779 HEAT: -192.2734
 CYCLE:    76 TIME:   0.027 TIME LEFT:  2.00D  GRAD.:     3.621 HEAT: -192.2763
 CYCLE:    77 TIME:   0.027 TIME LEFT:  2.00D  GRAD.:     1.838 HEAT: -192.2802
 CYCLE:    78 TIME:   0.027 TIME LEFT:  2.00D  GRAD.:     1.707 HEAT: -192.2823
 CYCLE:    79 TIME:   0.023 TIME LEFT:  2.00D  GRAD.:     1.351 HEAT: -192.2850
 CYCLE:    80 TIME:   0.027 TIME LEFT:  2.00D  GRAD.:     2.589 HEAT: -192.2868
 CYCLE:    81 TIME:   0.023 TIME LEFT:  2.00D  GRAD.:     1.101 HEAT: -192.2893
 CYCLE:    82 TIME:   0.031 TIME LEFT:  2.00D  GRAD.:     2.641 HEAT: -192.2910
 CYCLE:    83 TIME:   0.023 TIME LEFT:  2.00D  GRAD.:     1.547 HEAT: -192.2930
 CYCLE:    84 TIME:   0.023 TIME LEFT:  2.00D  GRAD.:     1.219 HEAT: -192.2952
 CYCLE:    85 TIME:   0.027 TIME LEFT:  2.00D  GRAD.:     1.618 HEAT: -192.2971
 CYCLE:    86 TIME:   0.027 TIME LEFT:  2.00D  GRAD.:     2.038 HEAT: -192.3000
 CYCLE:    87 TIME:   0.027 TIME LEFT:  2.00D  GRAD.:    12.878 HEAT: -192.2759
 CYCLE:    88 TIME:   0.023 TIME LEFT:  2.00D  GRAD.:     2.167 HEAT: -192.3052
 CYCLE:    89 TIME:   0.023 TIME LEFT:  2.00D  GRAD.:     1.212 HEAT: -192.3066
 CYCLE:    90 TIME:   0.027 TIME LEFT:  2.00D  GRAD.:     2.164 HEAT: -192.3090
 CYCLE:    91 TIME:   0.027 TIME LEFT:  2.00D  GRAD.:     1.483 HEAT: -192.3102
 CYCLE:    92 TIME:   0.027 TIME LEFT:  2.00D  GRAD.:     1.084 HEAT: -192.3110
 CYCLE:    93 TIME:   0.027 TIME LEFT:  2.00D  GRAD.:     1.351 HEAT: -192.3129
 CYCLE:    94 TIME:   0.027 TIME LEFT:  2.00D  GRAD.:     1.218 HEAT: -192.3161
 CYCLE:    95 TIME:   0.027 TIME LEFT:  2.00D  GRAD.:     3.491 HEAT: -192.3165
 CYCLE:    96 TIME:   0.027 TIME LEFT:  2.00D  GRAD.:     0.851 HEAT: -192.3186

 -------------------------------------------------------------------------------
 PM7 XYZ

 Lipophilicity_1704 - geometry optimisation


     HERBERTS TEST WAS SATISFIED IN BFGS                      
     SCF FIELD WAS ACHIEVED                                   


                              PM7 CALCULATION
                                                       MOPAC v23.0.3 Linux
                                                       Fri Jul 25 17:57:09 2025




          FINAL HEAT OF FORMATION =       -192.31861 KCAL/MOL =    -804.66108 KJ/MOL


          COSMO AREA              =        346.49 SQUARE ANGSTROMS
          COSMO VOLUME            =        380.40 CUBIC ANGSTROMS

          GRADIENT NORM           =          0.85051          =       0.12970 PER ATOM
          IONIZATION POTENTIAL    =          9.704179 EV
          HOMO LUMO ENERGIES (EV) =         -9.704 -0.844
          NO. OF FILLED LEVELS    =         62
          MOLECULAR WEIGHT        =        318.3383         POINT GROUP:  C1  

          MOLECULAR DIMENSIONS (Angstroms)

            Atom       Atom       Distance
            H    39    H    23    12.58418
            F    21    H    24     8.70476
            H    32    F    22     5.70178


          SCF CALCULATIONS        =         97

          WALL-CLOCK TIME         =      2.535 SECONDS
          COMPUTATION TIME        =     50.632 SECONDS




   ATOM   CHEMICAL          X               Y               Z
  NUMBER   SYMBOL      (ANGSTROMS)     (ANGSTROMS)     (ANGSTROMS)

     1       C          5.95896260  *  -0.76668086  *   0.20918819  *
     2       O          4.80746318  *  -0.19506872  *  -0.37829607  *
     3       C          3.74258293  *  -0.01862507  *   0.55091925  *
     4       C          2.60853397  *   0.58066952  *  -0.28399321  *
     5       C          2.05952019  *  -0.45136656  *  -1.27441304  *
     6       C          0.93640148  *   0.14080930  *  -2.13537885  *
     7       C         -0.28146318  *   0.43494047  *  -1.30110376  *
     8       N         -0.68279531  *   1.66400516  *  -1.24796203  *
     9       O         -1.80165112  *   1.82851088  *  -0.45794037  *
    10       C         -2.09422789  *   3.23964783  *  -0.38731600  *
    11       C         -3.34827366  *   3.26382677  *   0.50800018  *
    12       N         -3.77867552  *   4.67261473  *   0.61546163  *
    13       C         -0.91133936  *  -0.69984232  *  -0.59581368  *
    14       C         -1.37118818  *  -1.80733912  *  -1.30951264  *
    15       C         -1.95684440  *  -2.87585769  *  -0.63413910  *
    16       C         -2.08368928  *  -2.82739627  *   0.75332872  *
    17       C         -1.62417293  *  -1.72270200  *   1.47207220  *
    18       C         -1.04138087  *  -0.65607320  *   0.79503980  *
    19       C         -2.69388166  *  -3.97933657  *   1.49738518  *
    20       F         -1.78963604  *  -4.83504691  *   1.97830801  *
    21       F         -3.52317667  *  -4.74152645  *   0.78466249  *
    22       F         -3.41798471  *  -3.63097462  *   2.56182993  *
    23       H          6.66224243  *  -0.82797635  *  -0.63119405  *
    24       H          6.36314704  *  -0.11946637  *   0.99347403  *
    25       H          5.74783042  *  -1.76720018  *   0.59904931  *
    26       H          4.06640589  *   0.66810085  *   1.35226470  *
    27       H          3.46773468  *  -0.99190746  *   0.99161815  *
    28       H          2.98327535  *   1.46874887  *  -0.83293703  *
    29       H          1.80574630  *   0.95018235  *   0.38061403  *
    30       H          2.88373713  *  -0.80424923  *  -1.92879610  *
    31       H          1.70084950  *  -1.34912638  *  -0.73579100  *
    32       H          0.66749196  *  -0.56167164  *  -2.95085082  *
    33       H          1.29665852  *   1.06181017  *  -2.64598519  *
    34       H         -1.24524189  *   3.78001059  *   0.06317540  *
    35       H         -2.27976274  *   3.63730272  *  -1.39688448  *
    36       H         -4.12691312  *   2.58851851  *   0.09291932  *
    37       H         -3.09527571  *   2.87924808  *   1.52038311  *
    38       H         -4.22418427  *   4.99486908  *  -0.22782592  *
    39       H         -4.40201755  *   4.81555638  *   1.39221110  *
    40       H         -1.27722819  *  -1.83579593  *  -2.39484191  *
    41       H         -2.30494362  *  -3.73916315  *  -1.20517682  *
    42       H         -1.71284061  *  -1.68217663  *   2.55973731  *
    43       H         -0.68979573  *   0.21720265  *   1.34634100  *

                             CARTESIAN COORDINATES

   1    C        5.958962605    -0.766680859     0.209188192
   2    O        4.807463183    -0.195068722    -0.378296065
   3    C        3.742582933    -0.018625066     0.550919248
   4    C        2.608533968     0.580669518    -0.283993205
   5    C        2.059520185    -0.451366560    -1.274413045
   6    C        0.936401483     0.140809299    -2.135378850
   7    C       -0.281463183     0.434940471    -1.301103763
   8    N       -0.682795311     1.664005165    -1.247962030
   9    O       -1.801651120     1.828510878    -0.457940373
  10    C       -2.094227895     3.239647834    -0.387316005
  11    C       -3.348273658     3.263826766     0.508000182
  12    N       -3.778675523     4.672614735     0.615461635
  13    C       -0.911339365    -0.699842324    -0.595813683
  14    C       -1.371188179    -1.807339117    -1.309512641
  15    C       -1.956844397    -2.875857691    -0.634139096
  16    C       -2.083689277    -2.827396269     0.753328716
  17    C       -1.624172925    -1.722702005     1.472072201
  18    C       -1.041380873    -0.656073199     0.795039797
  19    C       -2.693881661    -3.979336572     1.497385184
  20    F       -1.789636038    -4.835046906     1.978308011
  21    F       -3.523176673    -4.741526453     0.784662488
  22    F       -3.417984713    -3.630974620     2.561829934
  23    H        6.662242426    -0.827976354    -0.631194047
  24    H        6.363147040    -0.119466366     0.993474033
  25    H        5.747830424    -1.767200178     0.599049314
  26    H        4.066405889     0.668100849     1.352264698
  27    H        3.467734676    -0.991907463     0.991618149
  28    H        2.983275347     1.468748872    -0.832937025
  29    H        1.805746303     0.950182352     0.380614032
  30    H        2.883737129    -0.804249234    -1.928796099
  31    H        1.700849495    -1.349126376    -0.735791005
  32    H        0.667491956    -0.561671643    -2.950850822
  33    H        1.296658518     1.061810171    -2.645985188
  34    H       -1.245241885     3.780010593     0.063175397
  35    H       -2.279762737     3.637302717    -1.396884483
  36    H       -4.126913116     2.588518510     0.092919319
  37    H       -3.095275711     2.879248080     1.520383108
  38    H       -4.224184273     4.994869076    -0.227825916
  39    H       -4.402017545     4.815556383     1.392211101
  40    H       -1.277228189    -1.835795932    -2.394841909
  41    H       -2.304943619    -3.739163147    -1.205176820
  42    H       -1.712840609    -1.682176626     2.559737312
  43    H       -0.689795731     0.217202648     1.346341002


           Empirical Formula: C15 H21 N2 O2 F3  =    43 atoms



      MOLECULAR POINT GROUP   :   C1  


                  EIGENVALUES  
 -41.82820 -41.37756 -41.33980 -35.67642 -34.64138 -31.35083 -29.96864 -29.54530
 -28.46922 -27.56271 -26.69253 -26.11231 -25.27283 -24.43260 -23.78809 -22.35022
 -21.89166 -21.41336 -21.17981 -20.40134 -19.44516 -18.96559 -18.92517 -18.77447
 -18.03978 -17.52388 -17.00559 -16.65935 -16.49370 -16.47960 -16.24348 -16.19042
 -16.05158 -16.00009 -15.70933 -15.61126 -15.47165 -15.32876 -15.23039 -15.03319
 -14.91714 -14.54285 -14.40188 -14.18849 -13.95842 -13.68916 -13.60645 -13.07371
 -12.84108 -12.74740 -12.66350 -12.39446 -12.10608 -12.01267 -11.75159 -11.51863
 -10.96438 -10.56374 -10.47023  -9.94895  -9.75479  -9.70418  -0.84397  -0.37770
   0.59519   1.26450   1.67972   1.74856   2.31562   2.39569   2.76637   2.89997
   3.04198   3.40098   3.52455   3.71482   3.73472   3.83492   4.17330   4.19585
   4.28242   4.35326   4.40185   4.47552   4.63282   4.87786   4.97981   5.09298
   5.17216   5.23151   5.41693   5.46874   5.48147   5.55611   5.60690   5.65720
   5.66592   5.66737   5.71925   5.74283   5.87254   5.95646   5.98900   6.16276
   6.17421   6.27414   6.51362   6.54729   6.83821


              NET ATOMIC CHARGES AND DIPOLE CONTRIBUTIONS

  ATOM NO.   TYPE          CHARGE      No. of ELECS.   s-Pop       p-Pop       
    1          C          -0.205097        4.2051     1.08056     3.12454
    2          O          -0.380886        6.3809     1.88221     4.49867
    3          C          -0.047956        4.0480     1.08873     2.95922
    4          C          -0.286702        4.2867     1.06153     3.22517
    5          C          -0.260387        4.2604     1.05887     3.20152
    6          C          -0.270538        4.2705     1.05884     3.21169
    7          C           0.089793        3.9102     1.08302     2.82719
    8          N          -0.210395        5.2104     1.79770     3.41270
    9          O          -0.202779        6.2028     1.92187     4.28090
   10          C          -0.066308        4.0663     1.09941     2.96690
   11          C          -0.130797        4.1308     1.06696     3.06384
   12          N          -0.637514        5.6375     1.63559     4.00193
   13          C           0.010265        3.9897     1.07303     2.91671
   14          C          -0.163360        4.1634     1.08309     3.08027
   15          C          -0.086564        4.0866     1.08578     3.00078
   16          C          -0.137055        4.1371     1.06542     3.07164
   17          C          -0.090560        4.0906     1.08606     3.00450
   18          C          -0.155212        4.1552     1.08493     3.07028
   19          C           0.552505        3.4475     1.15096     2.29653
   20          F          -0.204783        7.2048     1.96849     5.23629
   21          F          -0.203427        7.2034     1.96805     5.23537
   22          F          -0.204080        7.2041     1.96820     5.23588
   23          H           0.144322        0.8557     0.85568
   24          H           0.119917        0.8801     0.88008
   25          H           0.120488        0.8795     0.87951
   26          H           0.113724        0.8863     0.88628
   27          H           0.116863        0.8831     0.88314
   28          H           0.158961        0.8410     0.84104
   29          H           0.144877        0.8551     0.85512
   30          H           0.159703        0.8403     0.84030
   31          H           0.142533        0.8575     0.85747
   32          H           0.154466        0.8455     0.84553
   33          H           0.172343        0.8277     0.82766
   34          H           0.150845        0.8492     0.84916
   35          H           0.140473        0.8595     0.85953
   36          H           0.125683        0.8743     0.87432
   37          H           0.149225        0.8508     0.85077
   38          H           0.249216        0.7508     0.75078
   39          H           0.252331        0.7477     0.74767
   40          H           0.164660        0.8353     0.83534
   41          H           0.170880        0.8291     0.82912
   42          H           0.170237        0.8298     0.82976
   43          H           0.170092        0.8299     0.82991
 DIPOLE           X         Y         Z       TOTAL
 POINT-CHG.     1.705     1.863    -0.517     2.577
 HYBRID        -1.639    -1.150     0.379     2.038
 SUM            0.066     0.712    -0.138     0.728


          ATOMIC ORBITAL ELECTRON POPULATIONS

     Atom    s        px        py        pz   
    1  C   1.08056   0.92793   1.08501   1.11160
    2  O   1.88221   1.28630   1.85125   1.36112
    3  C   1.08873   0.89183   1.10060   0.96680
    4  C   1.06153   1.06396   1.08174   1.07947
    5  C   1.05887   1.06169   1.06703   1.07279
    6  C   1.05884   0.99117   1.16212   1.05840
    7  C   1.08302   0.96742   0.88876   0.97101
    8  N   1.79770   1.03799   1.25485   1.11986
    9  O   1.92187   1.36538   1.28330   1.63222
   10  C   1.09941   1.03836   0.82793   1.10061
   11  C   1.06696   1.04474   0.90011   1.11899
   12  N   1.63559   1.55264   1.24217   1.20712
   13  C   1.07303   0.95884   0.97254   0.98533
   14  C   1.08309   1.01063   0.98286   1.08679
   15  C   1.08578   0.96627   1.04578   0.98874
   16  C   1.06542   1.08196   0.99165   0.99803
   17  C   1.08606   0.95597   0.96623   1.08230
   18  C   1.08493   1.01211   1.05351   1.00467
   19  C   1.15096   0.74216   0.80193   0.75244
   20  F   1.96849   1.66010   1.69338   1.88282
   21  F   1.96805   1.70455   1.74940   1.78143
   22  F   1.96820   1.76799   1.93129   1.53660
   23  H   0.85568
   24  H   0.88008
   25  H   0.87951
   26  H   0.88628
   27  H   0.88314
   28  H   0.84104
   29  H   0.85512
   30  H   0.84030
   31  H   0.85747
   32  H   0.84553
   33  H   0.82766
   34  H   0.84916
   35  H   0.85953
   36  H   0.87432
   37  H   0.85077
   38  H   0.75078
   39  H   0.74767
   40  H   0.83534
   41  H   0.82912
   42  H   0.82976
   43  H   0.82991

 **********************
 *                    *
 * JOB ENDED NORMALLY *
 *                    *
 **********************



 TOTAL JOB TIME:             2.54 SECONDS

 == MOPAC DONE ==
