 *******************************************************************************
 **                                                                           **
 **                              MOPAC v23.0.3                                **
 **                                                                           **
 *******************************************************************************
 **          Digital Object Identifier (DOI): 10.5281/zenodo.6511958          **
 **    Visit the DOI location for information on how to cite this program.    **
 *******************************************************************************

                              PM7 CALCULATION RESULTS

 *******************************************************************************
 *  CALCULATION DONE:                                Fri Jul 25 16:00:33 2025  *
 *  PM7        - The PM7 Hamiltonian to be used
 *  XYZ        - CARTESIAN COORDINATE SYSTEM TO BE USED
 *  T=         - A TIME OF 172800.0 SECONDS REQUESTED
 *  DUMP=N     - RESTART FILE WRITTEN EVERY 7200.0 SECONDS REQUESTED
 *******************************************************************************
PM7 XYZ

 Lipophilicity_1037 - geometry optimisation
   ATOM   CHEMICAL          X               Y               Z
  NUMBER   SYMBOL      (ANGSTROMS)     (ANGSTROMS)     (ANGSTROMS)

     1       C         -2.58372100  *   0.87602800  *  -1.96098300  *
     2       C         -1.16311000  *   0.56620200  *  -1.51855100  *
     3       C         -0.85479800  *  -0.73401700  *  -1.06415400  *
     4       C          0.46660100  *  -1.03142200  *  -0.71945900  *
     5       O          0.75639900  *  -2.19668100  *  -0.32427200  *
     6       N          1.43661100  *  -0.07179500  *  -0.79655400  *
     7       C          2.82897400  *  -0.41381200  *  -0.42690000  *
     8       C          3.02676200  *  -0.39930600  *   1.10306000  *
     9       N          2.87818400  *   0.95943600  *   1.63098900  *
    10       C          4.39643500  *  -0.94960500  *   1.44611800  *
    11       C          4.52608600  *  -2.25263700  *   1.95811600  *
    12       C          5.78930300  *  -2.77276900  *   2.25549600  *
    13       C          6.93370300  *  -2.00276400  *   2.03619800  *
    14       C          6.81768200  *  -0.71230600  *   1.51442100  *
    15       C          5.55670300  *  -0.18752600  *   1.21534300  *
    16       C          1.11054300  *   1.20707200  *  -1.17293900  *
    17       O          2.01355800  *   2.09147600  *  -1.19624700  *
    18       N         -0.18266700  *   1.53891200  *  -1.51509100  *
    19       C         -0.50074600  *   2.94457600  *  -1.87940400  *
    20       C         -1.43127500  *   3.58937800  *  -0.87340300  *
    21       C         -1.09300200  *   3.62347000  *   0.49318200  *
    22       F          0.07442800  *   3.09068700  *   0.93175500  *
    23       C         -1.95051000  *   4.22416600  *   1.41968100  *
    24       C         -3.14315300  *   4.81113300  *   0.99468900  *
    25       C         -3.47831100  *   4.80685400  *  -0.35995200  *
    26       C         -2.62767600  *   4.20722400  *  -1.29439000  *
    27       F         -2.97468000  *   4.23257000  *  -2.60591000  *
    28       C         -1.89627600  *  -1.77902600  *  -0.91226700  *
    29       C         -1.87309300  *  -2.93501600  *  -1.73345400  *
    30       C         -2.85433300  *  -3.93250400  *  -1.58763100  *
    31       C         -3.83310800  *  -3.74373300  *  -0.61629600  *
    32       O         -4.88900600  *  -4.57114600  *  -0.28564200  *
    33       C         -5.62314700  *  -3.94918000  *   0.77918100  *
    34       O         -4.93238200  *  -2.71932600  *   1.04099100  *
    35       C         -3.85900100  *  -2.64063600  *   0.17409100  *
    36       C         -2.90803300  *  -1.63077700  *   0.06235600  *
    37       H         -2.60848600  *   1.58867700  *  -2.80584100  *
    38       H         -3.10464100  *  -0.02637500  *  -2.33941200  *
    39       H         -3.15986400  *   1.28753600  *  -1.10741700  *
    40       H          3.08166200  *  -1.42296500  *  -0.82355100  *
    41       H          3.55671000  *   0.27447100  *  -0.90979000  *
    42       H          2.24792800  *  -1.04468800  *   1.56957000  *
    43       H          3.08871100  *   0.94173200  *   2.65636600  *
    44       H          1.87287700  *   1.23351000  *   1.55621100  *
    45       H          3.65069900  *  -2.86697900  *   2.12690100  *
    46       H          5.88116900  *  -3.77457300  *   2.65401900  *
    47       H          7.91057200  *  -2.40799500  *   2.26652000  *
    48       H          7.70526000  *  -0.11900100  *   1.33924700  *
    49       H          5.48430400  *   0.81142000  *   0.80438400  *
    50       H         -0.90898500  *   2.97621100  *  -2.91080000  *
    51       H          0.40425900  *   3.58470900  *  -1.93825100  *
    52       H         -1.68797100  *   4.24122400  *   2.46890700  *
    53       H         -3.80392800  *   5.27769100  *   1.71460400  *
    54       H         -4.39698500  *   5.27510800  *  -0.68747600  *
    55       H         -1.10150900  *  -3.05506600  *  -2.48345300  *
    56       H         -2.84976200  *  -4.81713200  *  -2.21005900  *
    57       H         -5.60960100  *  -4.59563900  *   1.68227600  *
    58       H         -6.66518600  *  -3.74204500  *   0.45610200  *
    59       H         -2.94717800  *  -0.76303000  *   0.70877600  *



          CARTESIAN COORDINATES 

    NO.       ATOM           X           Y           Z

     1         C         -2.5837      0.8760     -1.9610
     2         C         -1.1631      0.5662     -1.5186
     3         C         -0.8548     -0.7340     -1.0642
     4         C          0.4666     -1.0314     -0.7195
     5         O          0.7564     -2.1967     -0.3243
     6         N          1.4366     -0.0718     -0.7966
     7         C          2.8290     -0.4138     -0.4269
     8         C          3.0268     -0.3993      1.1031
     9         N          2.8782      0.9594      1.6310
    10         C          4.3964     -0.9496      1.4461
    11         C          4.5261     -2.2526      1.9581
    12         C          5.7893     -2.7728      2.2555
    13         C          6.9337     -2.0028      2.0362
    14         C          6.8177     -0.7123      1.5144
    15         C          5.5567     -0.1875      1.2153
    16         C          1.1105      1.2071     -1.1729
    17         O          2.0136      2.0915     -1.1962
    18         N         -0.1827      1.5389     -1.5151
    19         C         -0.5007      2.9446     -1.8794
    20         C         -1.4313      3.5894     -0.8734
    21         C         -1.0930      3.6235      0.4932
    22         F          0.0744      3.0907      0.9318
    23         C         -1.9505      4.2242      1.4197
    24         C         -3.1432      4.8111      0.9947
    25         C         -3.4783      4.8069     -0.3600
    26         C         -2.6277      4.2072     -1.2944
    27         F         -2.9747      4.2326     -2.6059
    28         C         -1.8963     -1.7790     -0.9123
    29         C         -1.8731     -2.9350     -1.7335
    30         C         -2.8543     -3.9325     -1.5876
    31         C         -3.8331     -3.7437     -0.6163
    32         O         -4.8890     -4.5711     -0.2856
    33         C         -5.6231     -3.9492      0.7792
    34         O         -4.9324     -2.7193      1.0410
    35         C         -3.8590     -2.6406      0.1741
    36         C         -2.9080     -1.6308      0.0624
    37         H         -2.6085      1.5887     -2.8058
    38         H         -3.1046     -0.0264     -2.3394
    39         H         -3.1599      1.2875     -1.1074
    40         H          3.0817     -1.4230     -0.8236
    41         H          3.5567      0.2745     -0.9098
    42         H          2.2479     -1.0447      1.5696
    43         H          3.0887      0.9417      2.6564
    44         H          1.8729      1.2335      1.5562
    45         H          3.6507     -2.8670      2.1269
    46         H          5.8812     -3.7746      2.6540
    47         H          7.9106     -2.4080      2.2665
    48         H          7.7053     -0.1190      1.3392
    49         H          5.4843      0.8114      0.8044
    50         H         -0.9090      2.9762     -2.9108
    51         H          0.4043      3.5847     -1.9383
    52         H         -1.6880      4.2412      2.4689
    53         H         -3.8039      5.2777      1.7146
    54         H         -4.3970      5.2751     -0.6875
    55         H         -1.1015     -3.0551     -2.4835
    56         H         -2.8498     -4.8171     -2.2101
    57         H         -5.6096     -4.5956      1.6823
    58         H         -6.6652     -3.7420      0.4561
    59         H         -2.9472     -0.7630      0.7088

 General Reference for PM7:
 "Optimization of Parameters for Semiempirical Methods VI: More Modifications to the 
 NDDO Approximations and Re-optimization of Parameters", J. J. P. Stewart, J. Mol. Mod., 1:32, 19 (2013)
 https://link.springer.com/article/10.1007/s00894-012-1667-x

           Empirical Formula: C27 H23 N3 O4 F2  =    59 atoms



      MOLECULAR POINT GROUP   :   C1  


      RHF CALCULATION, NO. OF DOUBLY OCCUPIED LEVELS = 92


          Geometry optimization using L-BFGS
 CYCLE:     1 TIME:   0.098 TIME LEFT:  2.00D  GRAD.:   294.047 HEAT: -134.1369
 CYCLE:     2 TIME:   0.051 TIME LEFT:  2.00D  GRAD.:   286.244 HEAT: -134.9901
 CYCLE:     3 TIME:   0.066 TIME LEFT:  2.00D  GRAD.:    85.699 HEAT: -152.0827
 CYCLE:     4 TIME:   0.078 TIME LEFT:  2.00D  GRAD.:   286.566 HEAT: -134.9899
 CYCLE:     5 TIME:   0.070 TIME LEFT:  2.00D  GRAD.:    85.671 HEAT: -152.0888
 CYCLE:     6 TIME:   0.051 TIME LEFT:  2.00D  GRAD.:    53.568 HEAT: -153.7757
 CYCLE:     7 TIME:   0.059 TIME LEFT:  2.00D  GRAD.:    38.316 HEAT: -155.8149
 CYCLE:     8 TIME:   0.055 TIME LEFT:  2.00D  GRAD.:    40.707 HEAT: -156.8966
 CYCLE:     9 TIME:   0.055 TIME LEFT:  2.00D  GRAD.:    35.007 HEAT: -157.7911
 CYCLE:    10 TIME:   0.051 TIME LEFT:  2.00D  GRAD.:    22.839 HEAT: -158.3038
 CYCLE:    11 TIME:   0.051 TIME LEFT:  2.00D  GRAD.:    21.283 HEAT: -158.7075
 CYCLE:    12 TIME:   0.055 TIME LEFT:  2.00D  GRAD.:    23.541 HEAT: -158.9645
 CYCLE:    13 TIME:   0.051 TIME LEFT:  2.00D  GRAD.:    12.079 HEAT: -159.1561
 CYCLE:    14 TIME:   0.051 TIME LEFT:  2.00D  GRAD.:    10.732 HEAT: -159.2504
 CYCLE:    15 TIME:   0.051 TIME LEFT:  2.00D  GRAD.:    12.552 HEAT: -159.3606
 CYCLE:    16 TIME:   0.051 TIME LEFT:  2.00D  GRAD.:    17.654 HEAT: -159.5110
 CYCLE:    17 TIME:   0.051 TIME LEFT:  2.00D  GRAD.:    11.142 HEAT: -159.6379
 CYCLE:    18 TIME:   0.055 TIME LEFT:  2.00D  GRAD.:     7.919 HEAT: -159.7138
 CYCLE:    19 TIME:   0.051 TIME LEFT:  2.00D  GRAD.:     8.850 HEAT: -159.7826
 CYCLE:    20 TIME:   0.051 TIME LEFT:  2.00D  GRAD.:    13.187 HEAT: -159.8484
 CYCLE:    21 TIME:   0.051 TIME LEFT:  2.00D  GRAD.:     8.427 HEAT: -159.9230
 CYCLE:    22 TIME:   0.051 TIME LEFT:  2.00D  GRAD.:     7.188 HEAT: -159.9943
 CYCLE:    23 TIME:   0.055 TIME LEFT:  2.00D  GRAD.:    11.773 HEAT: -160.0456
 CYCLE:    24 TIME:   0.051 TIME LEFT:  2.00D  GRAD.:     8.275 HEAT: -160.0976
 CYCLE:    25 TIME:   0.051 TIME LEFT:  2.00D  GRAD.:     6.935 HEAT: -160.1445
 CYCLE:    26 TIME:   0.055 TIME LEFT:  2.00D  GRAD.:     8.566 HEAT: -160.1895
 CYCLE:    27 TIME:   0.051 TIME LEFT:  2.00D  GRAD.:     8.918 HEAT: -160.2411
 CYCLE:    28 TIME:   0.051 TIME LEFT:  2.00D  GRAD.:     8.601 HEAT: -160.3119
 CYCLE:    29 TIME:   0.059 TIME LEFT:  2.00D  GRAD.:    11.779 HEAT: -160.3664
 CYCLE:    30 TIME:   0.051 TIME LEFT:  2.00D  GRAD.:     8.476 HEAT: -160.4124
 CYCLE:    31 TIME:   0.051 TIME LEFT:  2.00D  GRAD.:     7.017 HEAT: -160.4476
 CYCLE:    32 TIME:   0.051 TIME LEFT:  2.00D  GRAD.:     7.787 HEAT: -160.5085
 CYCLE:    33 TIME:   0.055 TIME LEFT:  2.00D  GRAD.:    18.037 HEAT: -160.8466
 CYCLE:    34 TIME:   0.055 TIME LEFT:  2.00D  GRAD.:    10.392 HEAT: -160.9100
 CYCLE:    35 TIME:   0.051 TIME LEFT:  2.00D  GRAD.:     6.660 HEAT: -160.9612
 CYCLE:    36 TIME:   0.055 TIME LEFT:  2.00D  GRAD.:     8.168 HEAT: -161.0013
 CYCLE:    37 TIME:   0.055 TIME LEFT:  2.00D  GRAD.:    21.384 HEAT: -161.0550
 CYCLE:    38 TIME:   0.055 TIME LEFT:  2.00D  GRAD.:     8.615 HEAT: -161.1521
 CYCLE:    39 TIME:   0.051 TIME LEFT:  2.00D  GRAD.:     6.942 HEAT: -161.1945
 CYCLE:    40 TIME:   0.051 TIME LEFT:  2.00D  GRAD.:     8.682 HEAT: -161.2404
 CYCLE:    41 TIME:   0.059 TIME LEFT:  2.00D  GRAD.:    11.920 HEAT: -161.3172
 CYCLE:    42 TIME:   0.055 TIME LEFT:  2.00D  GRAD.:    23.688 HEAT: -161.3555
 CYCLE:    43 TIME:   0.051 TIME LEFT:  2.00D  GRAD.:     9.095 HEAT: -161.4587
 CYCLE:    44 TIME:   0.051 TIME LEFT:  2.00D  GRAD.:     8.746 HEAT: -161.5171
 CYCLE:    45 TIME:   0.055 TIME LEFT:  2.00D  GRAD.:    10.949 HEAT: -161.5935
 CYCLE:    46 TIME:   0.059 TIME LEFT:  2.00D  GRAD.:    18.704 HEAT: -161.6947
 CYCLE:    47 TIME:   0.055 TIME LEFT:  2.00D  GRAD.:    18.072 HEAT: -161.8064
 CYCLE:    48 TIME:   0.051 TIME LEFT:  2.00D  GRAD.:     8.130 HEAT: -161.8852
 CYCLE:    49 TIME:   0.062 TIME LEFT:  2.00D  GRAD.:    11.661 HEAT: -161.9429
 CYCLE:    50 TIME:   0.051 TIME LEFT:  2.00D  GRAD.:    10.474 HEAT: -162.0042
 CYCLE:    51 TIME:   0.062 TIME LEFT:  2.00D  GRAD.:     8.164 HEAT: -162.0789
 CYCLE:    52 TIME:   0.055 TIME LEFT:  2.00D  GRAD.:    12.027 HEAT: -162.1267
 CYCLE:    53 TIME:   0.051 TIME LEFT:  2.00D  GRAD.:     9.580 HEAT: -162.1767
 CYCLE:    54 TIME:   0.051 TIME LEFT:  2.00D  GRAD.:     6.810 HEAT: -162.2186
 CYCLE:    55 TIME:   0.059 TIME LEFT:  2.00D  GRAD.:     9.061 HEAT: -162.2789
 CYCLE:    56 TIME:   0.051 TIME LEFT:  2.00D  GRAD.:     8.805 HEAT: -162.3199
 CYCLE:    57 TIME:   0.055 TIME LEFT:  2.00D  GRAD.:     7.755 HEAT: -162.3585
 CYCLE:    58 TIME:   0.059 TIME LEFT:  2.00D  GRAD.:    13.121 HEAT: -162.3849
 CYCLE:    59 TIME:   0.051 TIME LEFT:  2.00D  GRAD.:     6.386 HEAT: -162.4223
 CYCLE:    60 TIME:   0.055 TIME LEFT:  2.00D  GRAD.:     6.182 HEAT: -162.4440
 CYCLE:    61 TIME:   0.059 TIME LEFT:  2.00D  GRAD.:     7.919 HEAT: -162.4793
 CYCLE:    62 TIME:   0.055 TIME LEFT:  2.00D  GRAD.:     8.950 HEAT: -162.5218
 CYCLE:    63 TIME:   0.055 TIME LEFT:  2.00D  GRAD.:     8.893 HEAT: -162.5764
 CYCLE:    64 TIME:   0.051 TIME LEFT:  2.00D  GRAD.:     6.253 HEAT: -162.6147
 CYCLE:    65 TIME:   0.055 TIME LEFT:  2.00D  GRAD.:     7.261 HEAT: -162.6510
 CYCLE:    66 TIME:   0.059 TIME LEFT:  2.00D  GRAD.:     7.567 HEAT: -162.6824
 CYCLE:    67 TIME:   0.051 TIME LEFT:  2.00D  GRAD.:     6.895 HEAT: -162.7196
 CYCLE:    68 TIME:   0.051 TIME LEFT:  2.00D  GRAD.:     6.407 HEAT: -162.7529
 CYCLE:    69 TIME:   0.051 TIME LEFT:  2.00D  GRAD.:     7.194 HEAT: -162.7846
 CYCLE:    70 TIME:   0.051 TIME LEFT:  2.00D  GRAD.:     8.265 HEAT: -162.8099
 CYCLE:    71 TIME:   0.055 TIME LEFT:  2.00D  GRAD.:     5.737 HEAT: -162.8360
 CYCLE:    72 TIME:   0.055 TIME LEFT:  2.00D  GRAD.:     4.651 HEAT: -162.8582
 CYCLE:    73 TIME:   0.051 TIME LEFT:  2.00D  GRAD.:     4.602 HEAT: -162.8701
 CYCLE:    74 TIME:   0.051 TIME LEFT:  2.00D  GRAD.:     3.780 HEAT: -162.8828
 CYCLE:    75 TIME:   0.055 TIME LEFT:  2.00D  GRAD.:     4.860 HEAT: -162.9007
 CYCLE:    76 TIME:   0.051 TIME LEFT:  2.00D  GRAD.:     5.963 HEAT: -162.9142
 CYCLE:    77 TIME:   0.051 TIME LEFT:  2.00D  GRAD.:     4.074 HEAT: -162.9296
 CYCLE:    78 TIME:   0.051 TIME LEFT:  2.00D  GRAD.:     4.175 HEAT: -162.9532
 CYCLE:    79 TIME:   0.055 TIME LEFT:  2.00D  GRAD.:     5.489 HEAT: -162.9737
 CYCLE:    80 TIME:   0.055 TIME LEFT:  2.00D  GRAD.:     4.753 HEAT: -162.9958
 CYCLE:    81 TIME:   0.051 TIME LEFT:  2.00D  GRAD.:     5.323 HEAT: -163.0131
 CYCLE:    82 TIME:   0.051 TIME LEFT:  2.00D  GRAD.:     6.059 HEAT: -163.0271
 CYCLE:    83 TIME:   0.055 TIME LEFT:  2.00D  GRAD.:     9.246 HEAT: -163.0462
 CYCLE:    84 TIME:   0.051 TIME LEFT:  2.00D  GRAD.:     3.781 HEAT: -163.0652
 CYCLE:    85 TIME:   0.051 TIME LEFT:  2.00D  GRAD.:     2.647 HEAT: -163.0719
 CYCLE:    86 TIME:   0.055 TIME LEFT:  2.00D  GRAD.:     4.674 HEAT: -163.0775
 CYCLE:    87 TIME:   0.055 TIME LEFT:  2.00D  GRAD.:     3.181 HEAT: -163.0936
 CYCLE:    88 TIME:   0.055 TIME LEFT:  2.00D  GRAD.:     3.430 HEAT: -163.1122
 CYCLE:    89 TIME:   0.051 TIME LEFT:  2.00D  GRAD.:     5.827 HEAT: -163.1183
 CYCLE:    90 TIME:   0.055 TIME LEFT:  2.00D  GRAD.:     3.070 HEAT: -163.1268
 CYCLE:    91 TIME:   0.051 TIME LEFT:  2.00D  GRAD.:     2.576 HEAT: -163.1354
 CYCLE:    92 TIME:   0.055 TIME LEFT:  2.00D  GRAD.:     3.820 HEAT: -163.1458
 CYCLE:    93 TIME:   0.055 TIME LEFT:  2.00D  GRAD.:     6.941 HEAT: -163.1516
 CYCLE:    94 TIME:   0.055 TIME LEFT:  2.00D  GRAD.:     3.185 HEAT: -163.1640
 CYCLE:    95 TIME:   0.051 TIME LEFT:  2.00D  GRAD.:     2.751 HEAT: -163.1726
 CYCLE:    96 TIME:   0.051 TIME LEFT:  2.00D  GRAD.:     2.791 HEAT: -163.1801
 CYCLE:    97 TIME:   0.055 TIME LEFT:  2.00D  GRAD.:    10.401 HEAT: -163.1794
 CYCLE:    98 TIME:   0.055 TIME LEFT:  2.00D  GRAD.:     3.219 HEAT: -163.1966
 CYCLE:    99 TIME:   0.051 TIME LEFT:  2.00D  GRAD.:     2.462 HEAT: -163.2015
 CYCLE:   100 TIME:   0.059 TIME LEFT:  2.00D  GRAD.:     3.202 HEAT: -163.2105
 CYCLE:   101 TIME:   0.055 TIME LEFT:  2.00D  GRAD.:     7.226 HEAT: -163.2178
 CYCLE:   102 TIME:   0.051 TIME LEFT:  2.00D  GRAD.:     3.619 HEAT: -163.2286
 CYCLE:   103 TIME:   0.051 TIME LEFT:  2.00D  GRAD.:     2.763 HEAT: -163.2364
 CYCLE:   104 TIME:   0.055 TIME LEFT:  2.00D  GRAD.:     3.193 HEAT: -163.2432
 CYCLE:   105 TIME:   0.055 TIME LEFT:  2.00D  GRAD.:     4.201 HEAT: -163.2558
 CYCLE:   106 TIME:   0.055 TIME LEFT:  2.00D  GRAD.:     8.352 HEAT: -163.2543
 CYCLE:   107 TIME:   0.051 TIME LEFT:  2.00D  GRAD.:     2.135 HEAT: -163.2690
 CYCLE:   108 TIME:   0.055 TIME LEFT:  2.00D  GRAD.:     1.797 HEAT: -163.2719
 CYCLE:   109 TIME:   0.051 TIME LEFT:  2.00D  GRAD.:     2.053 HEAT: -163.2766
 CYCLE:   110 TIME:   0.055 TIME LEFT:  2.00D  GRAD.:     6.907 HEAT: -163.2788
 CYCLE:   111 TIME:   0.051 TIME LEFT:  2.00D  GRAD.:     2.179 HEAT: -163.2857
 CYCLE:   112 TIME:   0.055 TIME LEFT:  2.00D  GRAD.:     1.597 HEAT: -163.2878
 CYCLE:   113 TIME:   0.055 TIME LEFT:  2.00D  GRAD.:     1.938 HEAT: -163.2915
 CYCLE:   114 TIME:   0.055 TIME LEFT:  2.00D  GRAD.:     3.682 HEAT: -163.2953
 CYCLE:   115 TIME:   0.055 TIME LEFT:  2.00D  GRAD.:     2.563 HEAT: -163.3003
 CYCLE:   116 TIME:   0.051 TIME LEFT:  2.00D  GRAD.:     2.269 HEAT: -163.3049
 CYCLE:   117 TIME:   0.051 TIME LEFT:  2.00D  GRAD.:     2.699 HEAT: -163.3086
 CYCLE:   118 TIME:   0.051 TIME LEFT:  2.00D  GRAD.:     2.374 HEAT: -163.3133
 CYCLE:   119 TIME:   0.051 TIME LEFT:  2.00D  GRAD.:     2.790 HEAT: -163.3209
 CYCLE:   120 TIME:   0.062 TIME LEFT:  2.00D  GRAD.:     3.911 HEAT: -163.3249
 CYCLE:   121 TIME:   0.051 TIME LEFT:  2.00D  GRAD.:     2.085 HEAT: -163.3295
 CYCLE:   122 TIME:   0.059 TIME LEFT:  2.00D  GRAD.:     2.112 HEAT: -163.3327
 CYCLE:   123 TIME:   0.051 TIME LEFT:  2.00D  GRAD.:     2.093 HEAT: -163.3372
 CYCLE:   124 TIME:   0.055 TIME LEFT:  2.00D  GRAD.:     3.448 HEAT: -163.3407
 CYCLE:   125 TIME:   0.051 TIME LEFT:  2.00D  GRAD.:     1.895 HEAT: -163.3441
 CYCLE:   126 TIME:   0.055 TIME LEFT:  2.00D  GRAD.:     1.827 HEAT: -163.3462
 CYCLE:   127 TIME:   0.055 TIME LEFT:  2.00D  GRAD.:     2.732 HEAT: -163.3519
 CYCLE:   128 TIME:   0.051 TIME LEFT:  2.00D  GRAD.:     6.068 HEAT: -163.3525
 CYCLE:   129 TIME:   0.051 TIME LEFT:  2.00D  GRAD.:     2.429 HEAT: -163.3586
 CYCLE:   130 TIME:   0.055 TIME LEFT:  2.00D  GRAD.:     1.659 HEAT: -163.3616
 CYCLE:   131 TIME:   0.055 TIME LEFT:  2.00D  GRAD.:     2.554 HEAT: -163.3656
 CYCLE:   132 TIME:   0.055 TIME LEFT:  2.00D  GRAD.:     3.522 HEAT: -163.3721
 CYCLE:   133 TIME:   0.059 TIME LEFT:  2.00D  GRAD.:     3.977 HEAT: -163.3786
 CYCLE:   134 TIME:   0.055 TIME LEFT:  2.00D  GRAD.:     3.827 HEAT: -163.3860
 CYCLE:   135 TIME:   0.055 TIME LEFT:  2.00D  GRAD.:     5.353 HEAT: -163.3909
 CYCLE:   136 TIME:   0.059 TIME LEFT:  2.00D  GRAD.:     5.094 HEAT: -163.3968
 CYCLE:   137 TIME:   0.059 TIME LEFT:  2.00D  GRAD.:     6.128 HEAT: -163.4008
 CYCLE:   138 TIME:   0.055 TIME LEFT:  2.00D  GRAD.:     8.546 HEAT: -163.4047
 CYCLE:   139 TIME:   0.055 TIME LEFT:  2.00D  GRAD.:    11.686 HEAT: -163.4129
 CYCLE:   140 TIME:   0.059 TIME LEFT:  2.00D  GRAD.:    12.359 HEAT: -163.4074
 CYCLE:   141 TIME:   0.059 TIME LEFT:  2.00D  GRAD.:     9.961 HEAT: -163.4249
 CYCLE:   142 TIME:   0.055 TIME LEFT:  2.00D  GRAD.:     5.965 HEAT: -163.4228
 CYCLE:   143 TIME:   0.055 TIME LEFT:  2.00D  GRAD.:    10.190 HEAT: -163.4327
 CYCLE:   144 TIME:   0.062 TIME LEFT:  2.00D  GRAD.:    13.497 HEAT: -163.3930
 CYCLE:   145 TIME:   0.059 TIME LEFT:  2.00D  GRAD.:    14.719 HEAT: -163.4185
 CYCLE:   146 TIME:   0.055 TIME LEFT:  2.00D  GRAD.:    44.047 HEAT: -163.1769
 CYCLE:   147 TIME:   0.055 TIME LEFT:  2.00D  GRAD.:    15.820 HEAT: -163.4045
 CYCLE:   148 TIME:   0.055 TIME LEFT:  2.00D  GRAD.:    49.721 HEAT: -163.0445
 CYCLE:   149 TIME:   0.055 TIME LEFT:  2.00D  GRAD.:     5.148 HEAT: -163.4464
 CYCLE:   150 TIME:   0.055 TIME LEFT:  2.00D  GRAD.:     7.482 HEAT: -163.4450
 CYCLE:   151 TIME:   0.055 TIME LEFT:  2.00D  GRAD.:     1.476 HEAT: -163.4537
 CYCLE:   152 TIME:   0.059 TIME LEFT:  2.00D  GRAD.:     2.181 HEAT: -163.4550
 CYCLE:   153 TIME:   0.059 TIME LEFT:  2.00D  GRAD.:     2.430 HEAT: -163.4579
 CYCLE:   154 TIME:   0.051 TIME LEFT:  2.00D  GRAD.:     1.791 HEAT: -163.4599
 CYCLE:   155 TIME:   0.059 TIME LEFT:  2.00D  GRAD.:     2.009 HEAT: -163.4622
 CYCLE:   156 TIME:   0.062 TIME LEFT:  2.00D  GRAD.:     3.974 HEAT: -163.4671
 CYCLE:   157 TIME:   0.055 TIME LEFT:  2.00D  GRAD.:    42.922 HEAT: -163.1480
 CYCLE:   158 TIME:   0.055 TIME LEFT:  2.00D  GRAD.:     1.850 HEAT: -163.4727
 CYCLE:   159 TIME:   0.062 TIME LEFT:  2.00D  GRAD.:     3.744 HEAT: -163.4749
 CYCLE:   160 TIME:   0.055 TIME LEFT:  2.00D  GRAD.:     9.790 HEAT: -163.4513
 CYCLE:   161 TIME:   0.051 TIME LEFT:  2.00D  GRAD.:     2.053 HEAT: -163.4807
 CYCLE:   162 TIME:   0.062 TIME LEFT:  2.00D  GRAD.:     2.976 HEAT: -163.4824
 CYCLE:   163 TIME:   0.055 TIME LEFT:  2.00D  GRAD.:     2.124 HEAT: -163.4903
 CYCLE:   164 TIME:   0.055 TIME LEFT:  2.00D  GRAD.:     5.008 HEAT: -163.4892
 CYCLE:   165 TIME:   0.059 TIME LEFT:  2.00D  GRAD.:     1.243 HEAT: -163.4943
 CYCLE:   166 TIME:   0.062 TIME LEFT:  2.00D  GRAD.:     1.877 HEAT: -163.4965
 CYCLE:   167 TIME:   0.051 TIME LEFT:  2.00D  GRAD.:     1.485 HEAT: -163.4995
 CYCLE:   168 TIME:   0.062 TIME LEFT:  2.00D  GRAD.:     2.975 HEAT: -163.5031
 CYCLE:   169 TIME:   0.051 TIME LEFT:  2.00D  GRAD.:     6.368 HEAT: -163.5055
 CYCLE:   170 TIME:   0.051 TIME LEFT:  2.00D  GRAD.:     1.601 HEAT: -163.5113
 CYCLE:   171 TIME:   0.055 TIME LEFT:  2.00D  GRAD.:     1.264 HEAT: -163.5128
 CYCLE:   172 TIME:   0.062 TIME LEFT:  2.00D  GRAD.:     3.162 HEAT: -163.5160
 CYCLE:   173 TIME:   0.055 TIME LEFT:  2.00D  GRAD.:     2.013 HEAT: -163.5204
 CYCLE:   174 TIME:   0.055 TIME LEFT:  2.00D  GRAD.:     1.601 HEAT: -163.5223
 CYCLE:   175 TIME:   0.055 TIME LEFT:  2.00D  GRAD.:     1.297 HEAT: -163.5243
 CYCLE:   176 TIME:   0.059 TIME LEFT:  2.00D  GRAD.:     1.904 HEAT: -163.5278
 CYCLE:   177 TIME:   0.051 TIME LEFT:  2.00D  GRAD.:     1.959 HEAT: -163.5315
 CYCLE:   178 TIME:   0.059 TIME LEFT:  2.00D  GRAD.:     2.543 HEAT: -163.5343
 CYCLE:   179 TIME:   0.051 TIME LEFT:  2.00D  GRAD.:     1.901 HEAT: -163.5359
 CYCLE:   180 TIME:   0.051 TIME LEFT:  2.00D  GRAD.:     1.366 HEAT: -163.5370
 CYCLE:   181 TIME:   0.051 TIME LEFT:  2.00D  GRAD.:     1.026 HEAT: -163.5389
 CYCLE:   182 TIME:   0.062 TIME LEFT:  2.00D  GRAD.:     1.920 HEAT: -163.5401
 CYCLE:   183 TIME:   0.055 TIME LEFT:  2.00D  GRAD.:     1.106 HEAT: -163.5410
 CYCLE:   184 TIME:   0.055 TIME LEFT:  2.00D  GRAD.:     0.887 HEAT: -163.5419

 -------------------------------------------------------------------------------
 PM7 XYZ

 Lipophilicity_1037 - geometry optimisation


     HERBERTS TEST WAS SATISFIED IN BFGS                      
     SCF FIELD WAS ACHIEVED                                   


                              PM7 CALCULATION
                                                       MOPAC v23.0.3 Linux
                                                       Fri Jul 25 16:00:43 2025




          FINAL HEAT OF FORMATION =       -163.54185 KCAL/MOL =    -684.25912 KJ/MOL


          COSMO AREA              =        445.55 SQUARE ANGSTROMS
          COSMO VOLUME            =        546.96 CUBIC ANGSTROMS

          GRADIENT NORM           =          0.88664          =       0.11543 PER ATOM
          IONIZATION POTENTIAL    =          8.778844 EV
          HOMO LUMO ENERGIES (EV) =         -8.779 -1.022
          NO. OF FILLED LEVELS    =         92
          MOLECULAR WEIGHT        =        491.4932         POINT GROUP:  C1  

          MOLECULAR DIMENSIONS (Angstroms)

            Atom       Atom       Distance
            H    58    H    48    14.82479
            H    54    H    46    11.66044
            H    52    H    55     5.71033


          SCF CALCULATIONS        =        185

          WALL-CLOCK TIME         =     10.102 SECONDS
          COMPUTATION TIME        =          3 MINUTES AND 21.603 SECONDS




   ATOM   CHEMICAL          X               Y               Z
  NUMBER   SYMBOL      (ANGSTROMS)     (ANGSTROMS)     (ANGSTROMS)

     1       C         -2.59374227  *   0.82936539  *  -2.03473057  *
     2       C         -1.23970833  *   0.47757140  *  -1.52341155  *
     3       C         -0.95409911  *  -0.75449258  *  -1.00524225  *
     4       C          0.38247488  *  -1.11589682  *  -0.56038744  *
     5       O          0.74232554  *  -2.17178129  *  -0.09921668  *
     6       N          1.36711187  *  -0.09434170  *  -0.71505511  *
     7       C          2.75977694  *  -0.39925161  *  -0.34342471  *
     8       C          3.00319317  *  -0.20620989  *   1.18333288  *
     9       N          3.00703645  *   1.21898892  *   1.57295293  *
    10       C          4.35050150  *  -0.82942038  *   1.48700039  *
    11       C          4.41442313  *  -2.20736276  *   1.70800887  *
    12       C          5.64137473  *  -2.81504153  *   1.96044025  *
    13       C          6.80643631  *  -2.04948985  *   1.99490219  *
    14       C          6.74147187  *  -0.67432828  *   1.78003800  *
    15       C          5.51467449  *  -0.06342278  *   1.52726187  *
    16       C          1.07989032  *   1.19591466  *  -1.14140963  *
    17       O          1.90047059  *   2.09218162  *  -1.15369992  *
    18       N         -0.23935660  *   1.43965924  *  -1.60977788  *
    19       C         -0.55020270  *   2.84043409  *  -1.95673614  *
    20       C         -1.37198612  *   3.51337618  *  -0.89747888  *
    21       C         -0.99634914  *   3.49723057  *   0.45134467  *
    22       F          0.11766375  *   2.87305609  *   0.79081251  *
    23       C         -1.74042589  *   4.10281414  *   1.46282693  *
    24       C         -2.90834364  *   4.77867689  *   1.11747885  *
    25       C         -3.31865966  *   4.84848801  *  -0.21241318  *
    26       C         -2.54436789  *   4.21911934  *  -1.18568488  *
    27       F         -2.94857494  *   4.30161413  *  -2.44319023  *
    28       C         -1.96094872  *  -1.80660498  *  -0.86351626  *
    29       C         -1.85077019  *  -2.96741906  *  -1.62738429  *
    30       C         -2.77924712  *  -4.01820467  *  -1.51796281  *
    31       C         -3.79712430  *  -3.83269099  *  -0.61486855  *
    32       O         -4.82382800  *  -4.69530747  *  -0.31835730  *
    33       C         -5.59690215  *  -4.02880960  *   0.70398042  *
    34       O         -5.01106057  *  -2.73693980  *   0.98125057  *
    35       C         -3.90891259  *  -2.65744644  *   0.16449980  *
    36       C         -3.00911791  *  -1.62603548  *   0.06729810  *
    37       H         -2.56335586  *   1.31724912  *  -3.02106757  *
    38       H         -3.23259936  *  -0.06473629  *  -2.15384303  *
    39       H         -3.12752965  *   1.50335328  *  -1.34473766  *
    40       H          2.97677341  *  -1.45874387  *  -0.62662581  *
    41       H          3.45843811  *   0.24425148  *  -0.92696529  *
    42       H          2.20586805  *  -0.75617782  *   1.75259362  *
    43       H          2.25351053  *   1.44241828  *   2.19936762  *
    44       H          2.95951540  *   1.83065441  *   0.77111860  *
    45       H          3.50638986  *  -2.80904678  *   1.68292676  *
    46       H          5.68985751  *  -3.88778807  *   2.13145577  *
    47       H          7.76341921  *  -2.52492522  *   2.19145269  *
    48       H          7.64797129  *  -0.07462258  *   1.81095862  *
    49       H          5.45797098  *   1.01612715  *   1.37520206  *
    50       H         -1.03669615  *   2.85308501  *  -2.96101505  *
    51       H          0.41451608  *   3.40990456  *  -2.09601355  *
    52       H         -1.41371377  *   4.05397497  *   2.50229329  *
    53       H         -3.50542949  *   5.26089348  *   1.89396026  *
    54       H         -4.22636401  *   5.38699238  *  -0.48341338  *
    55       H         -1.01424260  *  -3.07449372  *  -2.31899827  *
    56       H         -2.68461686  *  -4.92273833  *  -2.10904644  *
    57       H         -5.53229015  *  -4.63152771  *   1.62074847  *
    58       H         -6.60578627  *  -3.86074184  *   0.30422619  *
    59       H         -3.07687570  *  -0.73126656  *   0.67568017  *

                             CARTESIAN COORDINATES

   1    C       -2.593742271     0.829365392    -2.034730568
   2    C       -1.239708333     0.477571403    -1.523411550
   3    C       -0.954099107    -0.754492577    -1.005242253
   4    C        0.382474882    -1.115896822    -0.560387438
   5    O        0.742325541    -2.171781293    -0.099216685
   6    N        1.367111867    -0.094341699    -0.715055111
   7    C        2.759776937    -0.399251608    -0.343424707
   8    C        3.003193167    -0.206209891     1.183332877
   9    N        3.007036450     1.218988917     1.572952926
  10    C        4.350501499    -0.829420385     1.487000391
  11    C        4.414423129    -2.207362765     1.708008873
  12    C        5.641374734    -2.815041529     1.960440251
  13    C        6.806436307    -2.049489852     1.994902190
  14    C        6.741471870    -0.674328281     1.780038003
  15    C        5.514674495    -0.063422775     1.527261865
  16    C        1.079890324     1.195914661    -1.141409632
  17    O        1.900470588     2.092181615    -1.153699922
  18    N       -0.239356595     1.439659243    -1.609777884
  19    C       -0.550202702     2.840434090    -1.956736137
  20    C       -1.371986121     3.513376181    -0.897478882
  21    C       -0.996349136     3.497230572     0.451344673
  22    F        0.117663750     2.873056089     0.790812509
  23    C       -1.740425886     4.102814144     1.462826930
  24    C       -2.908343639     4.778676889     1.117478849
  25    C       -3.318659665     4.848488009    -0.212413176
  26    C       -2.544367885     4.219119336    -1.185684875
  27    F       -2.948574944     4.301614131    -2.443190229
  28    C       -1.960948717    -1.806604978    -0.863516256
  29    C       -1.850770191    -2.967419060    -1.627384286
  30    C       -2.779247121    -4.018204668    -1.517962813
  31    C       -3.797124303    -3.832690993    -0.614868551
  32    O       -4.823828003    -4.695307468    -0.318357295
  33    C       -5.596902151    -4.028809603     0.703980418
  34    O       -5.011060566    -2.736939801     0.981250567
  35    C       -3.908912594    -2.657446436     0.164499800
  36    C       -3.009117914    -1.626035480     0.067298100
  37    H       -2.563355863     1.317249121    -3.021067568
  38    H       -3.232599359    -0.064736288    -2.153843034
  39    H       -3.127529647     1.503353284    -1.344737660
  40    H        2.976773413    -1.458743868    -0.626625809
  41    H        3.458438111     0.244251476    -0.926965286
  42    H        2.205868046    -0.756177816     1.752593622
  43    H        2.253510532     1.442418278     2.199367620
  44    H        2.959515399     1.830654413     0.771118601
  45    H        3.506389860    -2.809046781     1.682926761
  46    H        5.689857510    -3.887788073     2.131455770
  47    H        7.763419208    -2.524925225     2.191452688
  48    H        7.647971286    -0.074622583     1.810958625
  49    H        5.457970981     1.016127154     1.375202058
  50    H       -1.036696150     2.853085008    -2.961015051
  51    H        0.414516083     3.409904558    -2.096013552
  52    H       -1.413713766     4.053974972     2.502293291
  53    H       -3.505429493     5.260893483     1.893960264
  54    H       -4.226364011     5.386992383    -0.483413381
  55    H       -1.014242600    -3.074493719    -2.318998266
  56    H       -2.684616865    -4.922738335    -2.109046436
  57    H       -5.532290154    -4.631527706     1.620748467
  58    H       -6.605786272    -3.860741837     0.304226192
  59    H       -3.076875697    -0.731266556     0.675680166


           Empirical Formula: C27 H23 N3 O4 F2  =    59 atoms



      MOLECULAR POINT GROUP   :   C1  


                  EIGENVALUES  
 -41.96556 -41.83429 -38.55827 -36.68093 -35.02351 -32.29243 -31.67194 -31.43331
 -30.73560 -30.48947 -30.14898 -29.40223 -28.77538 -28.05384 -27.14310 -26.55718
 -26.38661 -26.06095 -25.44769 -25.40499 -24.55851 -24.28487 -23.81152 -22.62182
 -22.29987 -22.18534 -21.83938 -21.50948 -21.00866 -20.74477 -20.64869 -19.48393
 -19.43423 -19.04795 -18.55575 -18.17157 -17.66967 -17.58361 -17.41463 -17.28662
 -17.23283 -17.22553 -16.95727 -16.83289 -16.70640 -16.66306 -16.47952 -16.37216
 -16.28014 -15.90375 -15.81828 -15.30954 -15.26360 -15.13982 -15.02980 -14.92315
 -14.81003 -14.74793 -14.51757 -14.47057 -14.24685 -14.18470 -14.07548 -13.87313
 -13.81851 -13.81265 -13.78430 -13.69789 -13.62211 -13.29558 -13.27349 -13.17874
 -13.16519 -12.98315 -12.83934 -12.37083 -12.28317 -12.06620 -11.77156 -11.56519
 -11.44387 -11.41932 -10.78244 -10.64070 -10.59210 -10.45463  -9.90467  -9.56216
  -9.44459  -9.21716  -9.14890  -8.77884  -1.02221  -0.79626  -0.49515  -0.02555
   0.11863   0.32514   0.49509   0.56366   0.65870   1.14643   1.34227   1.47344
   1.81547   1.85526   1.97299   2.30926   2.35938   2.68409   2.88532   2.89390
   2.99849   3.07037   3.30243   3.45728   3.50189   3.62778   3.68425   3.80581
   3.81946   3.85872   3.87362   3.88754   4.03388   4.07686   4.20147   4.26340
   4.36865   4.52405   4.58512   4.62507   4.70058   4.79575   4.82883   4.83377
   4.85757   4.88323   4.95853   4.96642   5.01755   5.05884   5.08995   5.12495
   5.20815   5.29323   5.38324   5.41593   5.43855   5.51280   5.60199   5.63826
   5.69180   5.85854   5.88615   5.94133   6.03731   6.10544   6.10906   6.16092
   6.27327   6.50685   6.53529   6.67086   6.70170   6.87779   7.53931


              NET ATOMIC CHARGES AND DIPOLE CONTRIBUTIONS

  ATOM NO.   TYPE          CHARGE      No. of ELECS.   s-Pop       p-Pop       
    1          C          -0.473639        4.4736     1.05336     3.42028
    2          C           0.342739        3.6573     1.07138     2.58588
    3          C          -0.344720        4.3447     1.04917     3.29555
    4          C           0.619090        3.3809     1.07505     2.30586
    5          O          -0.461248        6.4612     1.87966     4.58159
    6          N          -0.539621        5.5396     1.59298     3.94664
    7          C          -0.100374        4.1004     1.08341     3.01696
    8          C           0.033974        3.9660     1.07187     2.89415
    9          N          -0.660243        5.6602     1.63772     4.02253
   10          C          -0.018040        4.0180     1.07692     2.94112
   11          C          -0.173516        4.1735     1.08536     3.08815
   12          C          -0.148605        4.1486     1.08133     3.06728
   13          C          -0.158104        4.1581     1.08191     3.07620
   14          C          -0.157553        4.1576     1.08288     3.07467
   15          C          -0.124113        4.1241     1.08689     3.03722
   16          C           0.702359        3.2976     1.04095     2.25669
   17          O          -0.527036        6.5270     1.88256     4.64447
   18          N          -0.462852        5.4629     1.56873     3.89412
   19          C          -0.044902        4.0449     1.05882     2.98608
   20          C          -0.189421        4.1894     1.06717     3.12225
   21          C           0.236577        3.7634     1.09765     2.66578
   22          F          -0.152688        7.1527     1.96606     5.18662
   23          C          -0.240939        4.2409     1.08098     3.15996
   24          C          -0.057576        4.0576     1.08602     2.97156
   25          C          -0.250851        4.2509     1.08028     3.17058
   26          C           0.219244        3.7808     1.09657     2.68419
   27          F          -0.164524        7.1645     1.96616     5.19837
   28          C           0.045249        3.9548     1.04895     2.90580
   29          C          -0.136785        4.1368     1.08316     3.05363
   30          C          -0.183295        4.1833     1.07455     3.10875
   31          C           0.124965        3.8750     1.08195     2.79308
   32          O          -0.344042        6.3440     1.87990     4.46414
   33          C           0.158160        3.8418     1.13459     2.70725
   34          O          -0.346011        6.3460     1.88022     4.46579
   35          C           0.129255        3.8707     1.08059     2.79015
   36          C          -0.196998        4.1970     1.07590     3.12110
   37          H           0.176838        0.8232     0.82316
   38          H           0.192032        0.8080     0.80797
   39          H           0.180605        0.8194     0.81940
   40          H           0.177862        0.8221     0.82214
   41          H           0.170772        0.8292     0.82923
   42          H           0.154232        0.8458     0.84577
   43          H           0.253690        0.7463     0.74631
   44          H           0.275076        0.7249     0.72492
   45          H           0.158987        0.8410     0.84101
   46          H           0.144730        0.8553     0.85527
   47          H           0.140930        0.8591     0.85907
   48          H           0.143676        0.8563     0.85632
   49          H           0.172899        0.8271     0.82710
   50          H           0.168008        0.8320     0.83199
   51          H           0.203683        0.7963     0.79632
   52          H           0.186730        0.8133     0.81327
   53          H           0.163575        0.8364     0.83642
   54          H           0.181178        0.8188     0.81882
   55          H           0.169429        0.8306     0.83057
   56          H           0.174177        0.8258     0.82582
   57          H           0.142587        0.8574     0.85741
   58          H           0.138266        0.8617     0.86173
   59          H           0.176124        0.8239     0.82388
 DIPOLE           X         Y         Z       TOTAL
 POINT-CHG.    -5.707     3.152    -1.360     6.660
 HYBRID        -0.860     0.092    -0.255     0.902
 SUM           -6.567     3.244    -1.615     7.501


          ATOMIC ORBITAL ELECTRON POPULATIONS

     Atom    s        px        py        pz   
    1  C   1.05336   1.04137   1.20830   1.17061
    2  C   1.07138   0.86634   0.86918   0.85035
    3  C   1.04917   1.02641   1.02458   1.24456
    4  C   1.07505   0.81217   0.76280   0.73089
    5  O   1.87966   1.77928   1.32894   1.47337
    6  N   1.59298   1.18325   1.16614   1.59725
    7  C   1.08341   0.81569   1.16477   1.03650
    8  C   1.07187   1.03402   0.89013   0.97001
    9  N   1.63772   1.58553   1.11915   1.31785
   10  C   1.07692   0.97704   0.97332   0.99077
   11  C   1.08536   1.05652   1.01649   1.01515
   12  C   1.08133   0.98729   1.07228   1.00771
   13  C   1.08191   1.05551   1.00821   1.01248
   14  C   1.08288   1.05377   1.01315   1.00775
   15  C   1.08689   0.97005   1.08842   0.97875
   16  C   1.04095   0.75367   0.76923   0.73380
   17  O   1.88256   1.53303   1.48240   1.62904
   18  N   1.56873   1.15184   1.14785   1.59443
   19  C   1.05882   1.13119   0.81693   1.03796
   20  C   1.06717   1.02564   1.09318   1.00344
   21  C   1.09765   0.82938   0.89537   0.94103
   22  F   1.96606   1.44880   1.80304   1.93478
   23  C   1.08098   1.02061   1.04926   1.09009
   24  C   1.08602   0.99055   0.95906   1.02195
   25  C   1.08028   1.09466   1.08072   0.99520
   26  C   1.09657   0.93145   0.94779   0.80494
   27  F   1.96616   1.90978   1.96646   1.32212
   28  C   1.04895   0.95583   0.96592   0.98405
   29  C   1.08316   1.04392   0.97057   1.03914
   30  C   1.07455   0.99120   1.07459   1.04295
   31  C   1.08195   0.90242   0.89390   0.99677
   32  O   1.87990   1.44300   1.43337   1.58778
   33  C   1.13459   0.96094   0.79967   0.94664
   34  O   1.88022   1.44755   1.39778   1.62046
   35  C   1.08059   0.88151   0.98752   0.92113
   36  C   1.07590   0.99857   1.06523   1.05730
   37  H   0.82316
   38  H   0.80797
   39  H   0.81940
   40  H   0.82214
   41  H   0.82923
   42  H   0.84577
   43  H   0.74631
   44  H   0.72492
   45  H   0.84101
   46  H   0.85527
   47  H   0.85907
   48  H   0.85632
   49  H   0.82710
   50  H   0.83199
   51  H   0.79632
   52  H   0.81327
   53  H   0.83642
   54  H   0.81882
   55  H   0.83057
   56  H   0.82582
   57  H   0.85741
   58  H   0.86173
   59  H   0.82388

 **********************
 *                    *
 * JOB ENDED NORMALLY *
 *                    *
 **********************



 TOTAL JOB TIME:            10.11 SECONDS

 == MOPAC DONE ==
