 *******************************************************************************
 **                                                                           **
 **                              MOPAC v23.0.3                                **
 **                                                                           **
 *******************************************************************************
 **          Digital Object Identifier (DOI): 10.5281/zenodo.6511958          **
 **    Visit the DOI location for information on how to cite this program.    **
 *******************************************************************************

                              PM7 CALCULATION RESULTS

 *******************************************************************************
 *  CALCULATION DONE:                                Fri Jul 25 18:53:35 2025  *
 *  PM7        - The PM7 Hamiltonian to be used
 *  XYZ        - CARTESIAN COORDINATE SYSTEM TO BE USED
 *  T=         - A TIME OF 172800.0 SECONDS REQUESTED
 *  DUMP=N     - RESTART FILE WRITTEN EVERY 7200.0 SECONDS REQUESTED
 *******************************************************************************
PM7 XYZ

 Lipophilicity_200 - geometry optimisation
   ATOM   CHEMICAL          X               Y               Z
  NUMBER   SYMBOL      (ANGSTROMS)     (ANGSTROMS)     (ANGSTROMS)

     1       C         -4.24796300  *  -0.68362600  *  -0.56954100  *
     2       C         -3.92967900  *  -0.00212800  *   0.75695600  *
     3       O         -2.84357100  *   0.91275800  *   0.60869600  *
     4       C         -1.48848900  *   0.56125900  *   0.49177700  *
     5       C         -0.56202200  *   1.58047300  *   0.24442100  *
     6       C          0.79958200  *   1.29120400  *   0.11724000  *
     7       C          1.25684500  *  -0.03352400  *   0.22512900  *
     8       N          2.65432500  *  -0.35737100  *   0.12248100  *
     9       C          3.58071100  *   0.33083600  *  -0.73201800  *
    10       O          3.16826000  *   1.10901300  *  -1.63393500  *
    11       C          5.04378900  *   0.05016900  *  -0.62062800  *
    12       C          0.33343000  *  -1.05219900  *   0.49963800  *
    13       C         -1.02852800  *  -0.76286800  *   0.62594700  *
    14       H         -5.12209800  *  -1.35632100  *  -0.44265200  *
    15       H         -4.49130500  *   0.08067900  *  -1.33756400  *
    16       H         -3.38439500  *  -1.28494900  *  -0.92031700  *
    17       H         -4.82503500  *   0.57015300  *   1.07890500  *
    18       H         -3.71344500  *  -0.75051000  *   1.54837200  *
    19       H         -0.89949100  *   2.60554600  *   0.15679800  *
    20       H          1.49292600  *   2.10657600  *  -0.03897000  *
    21       H          3.00339300  *  -1.19689800  *   0.63848400  *
    22       H          5.63186400  *   0.88679400  *  -1.05405400  *
    23       H          5.32623800  *  -0.06717900  *   0.44659200  *
    24       H          5.28311700  *  -0.88549300  *  -1.16726200  *
    25       H          0.67014000  *  -2.07582600  *   0.60706200  *
    26       H         -1.70859900  *  -1.57657000  *   0.83239100  *



          CARTESIAN COORDINATES 

    NO.       ATOM           X           Y           Z

     1         C         -4.2480     -0.6836     -0.5695
     2         C         -3.9297     -0.0021      0.7570
     3         O         -2.8436      0.9128      0.6087
     4         C         -1.4885      0.5613      0.4918
     5         C         -0.5620      1.5805      0.2444
     6         C          0.7996      1.2912      0.1172
     7         C          1.2568     -0.0335      0.2251
     8         N          2.6543     -0.3574      0.1225
     9         C          3.5807      0.3308     -0.7320
    10         O          3.1683      1.1090     -1.6339
    11         C          5.0438      0.0502     -0.6206
    12         C          0.3334     -1.0522      0.4996
    13         C         -1.0285     -0.7629      0.6259
    14         H         -5.1221     -1.3563     -0.4427
    15         H         -4.4913      0.0807     -1.3376
    16         H         -3.3844     -1.2849     -0.9203
    17         H         -4.8250      0.5702      1.0789
    18         H         -3.7134     -0.7505      1.5484
    19         H         -0.8995      2.6055      0.1568
    20         H          1.4929      2.1066     -0.0390
    21         H          3.0034     -1.1969      0.6385
    22         H          5.6319      0.8868     -1.0541
    23         H          5.3262     -0.0672      0.4466
    24         H          5.2831     -0.8855     -1.1673
    25         H          0.6701     -2.0758      0.6071
    26         H         -1.7086     -1.5766      0.8324

 General Reference for PM7:
 "Optimization of Parameters for Semiempirical Methods VI: More Modifications to the 
 NDDO Approximations and Re-optimization of Parameters", J. J. P. Stewart, J. Mol. Mod., 1:32, 19 (2013)
 https://link.springer.com/article/10.1007/s00894-012-1667-x

           Empirical Formula: C10 H13 N O2  =    26 atoms



      MOLECULAR POINT GROUP   :   C1  


      RHF CALCULATION, NO. OF DOUBLY OCCUPIED LEVELS = 35


          Geometry optimization using EF

          DIAGONAL MATRIX USED AS START HESSIAN

 CYCLE:     1 TIME:   0.016 TIME LEFT:  2.00D  GRAD.:   155.005 HEAT: -60.09137
 CYCLE:     2 TIME:   0.023 TIME LEFT:  2.00D  GRAD.:   187.994 HEAT: -62.30798
 CYCLE:     3 TIME:   0.016 TIME LEFT:  2.00D  GRAD.:   107.364 HEAT: -65.83716
 CYCLE:     4 TIME:   0.008 TIME LEFT:  2.00D  GRAD.:   126.453 HEAT: -66.13779
 CYCLE:     5 TIME:   0.016 TIME LEFT:  2.00D  GRAD.:   110.937 HEAT: -67.43276
 CYCLE:     6 TIME:   0.023 TIME LEFT:  2.00D  GRAD.:    52.649 HEAT: -70.02308
 CYCLE:     7 TIME:   0.016 TIME LEFT:  2.00D  GRAD.:    26.958 HEAT: -70.64324
 CYCLE:     8 TIME:   0.016 TIME LEFT:  2.00D  GRAD.:    28.532 HEAT: -71.06521
 CYCLE:     9 TIME:   0.008 TIME LEFT:  2.00D  GRAD.:    31.392 HEAT: -71.53244
 CYCLE:    10 TIME:   0.016 TIME LEFT:  2.00D  GRAD.:    35.308 HEAT: -71.76328
 CYCLE:    11 TIME:   0.016 TIME LEFT:  2.00D  GRAD.:    34.915 HEAT: -72.01574
 CYCLE:    12 TIME:   0.008 TIME LEFT:  2.00D  GRAD.:    43.565 HEAT: -72.05051
 CYCLE:    13 TIME:   0.016 TIME LEFT:  2.00D  GRAD.:    45.475 HEAT: -72.22825
 CYCLE:    14 TIME:   0.008 TIME LEFT:  2.00D  GRAD.:    19.804 HEAT: -72.60938
 CYCLE:    15 TIME:   0.016 TIME LEFT:  2.00D  GRAD.:    21.658 HEAT: -72.70449
 CYCLE:    16 TIME:   0.016 TIME LEFT:  2.00D  GRAD.:    23.707 HEAT: -72.76132
 CYCLE:    17 TIME:   0.008 TIME LEFT:  2.00D  GRAD.:    21.526 HEAT: -72.85429
 CYCLE:    18 TIME:   0.008 TIME LEFT:  2.00D  GRAD.:    23.880 HEAT: -72.88083
 CYCLE:    19 TIME:   0.016 TIME LEFT:  2.00D  GRAD.:    18.316 HEAT: -72.99312
 CYCLE:    20 TIME:   0.008 TIME LEFT:  2.00D  GRAD.:    19.600 HEAT: -73.04686
 CYCLE:    21 TIME:   0.023 TIME LEFT:  2.00D  GRAD.:    11.973 HEAT: -73.12004
 CYCLE:    22 TIME:   0.008 TIME LEFT:  2.00D  GRAD.:    14.499 HEAT: -73.12472
 CYCLE:    23 TIME:   0.008 TIME LEFT:  2.00D  GRAD.:    11.100 HEAT: -73.16577
 CYCLE:    24 TIME:   0.016 TIME LEFT:  2.00D  GRAD.:    16.840 HEAT: -73.16895
 CYCLE:    25 TIME:   0.008 TIME LEFT:  2.00D  GRAD.:    10.025 HEAT: -73.23183
 CYCLE:    26 TIME:   0.031 TIME LEFT:  2.00D  GRAD.:     5.792 HEAT: -73.25843
 CYCLE:    27 TIME:   0.008 TIME LEFT:  2.00D  GRAD.:     3.694 HEAT: -73.27795
 CYCLE:    28 TIME:   0.008 TIME LEFT:  2.00D  GRAD.:     4.694 HEAT: -73.30187
 CYCLE:    29 TIME:   0.016 TIME LEFT:  2.00D  GRAD.:     4.827 HEAT: -73.33188
 CYCLE:    30 TIME:   0.008 TIME LEFT:  2.00D  GRAD.:     4.486 HEAT: -73.37628
 CYCLE:    31 TIME:   0.008 TIME LEFT:  2.00D  GRAD.:     5.289 HEAT: -73.42310
 CYCLE:    32 TIME:   0.016 TIME LEFT:  2.00D  GRAD.:     6.164 HEAT: -73.47767
 CYCLE:    33 TIME:   0.008 TIME LEFT:  2.00D  GRAD.:     8.522 HEAT: -73.51157
 CYCLE:    34 TIME:   0.008 TIME LEFT:  2.00D  GRAD.:    12.383 HEAT: -73.52397
 CYCLE:    35 TIME:   0.023 TIME LEFT:  2.00D  GRAD.:     7.822 HEAT: -73.56111
 CYCLE:    36 TIME:   0.016 TIME LEFT:  2.00D  GRAD.:     6.084 HEAT: -73.58459
 CYCLE:    37 TIME:   0.008 TIME LEFT:  2.00D  GRAD.:     7.653 HEAT: -73.59041
 CYCLE:    38 TIME:   0.016 TIME LEFT:  2.00D  GRAD.:     4.812 HEAT: -73.62122
 CYCLE:    39 TIME:   0.008 TIME LEFT:  2.00D  GRAD.:     8.315 HEAT: -73.62353
 CYCLE:    40 TIME:   0.008 TIME LEFT:  2.00D  GRAD.:     7.398 HEAT: -73.64267
 CYCLE:    41 TIME:   0.016 TIME LEFT:  2.00D  GRAD.:     7.618 HEAT: -73.65544
 CYCLE:    42 TIME:   0.008 TIME LEFT:  2.00D  GRAD.:     4.957 HEAT: -73.68494
 CYCLE:    43 TIME:   0.016 TIME LEFT:  2.00D  GRAD.:     7.224 HEAT: -73.68614
 CYCLE:    44 TIME:   0.016 TIME LEFT:  2.00D  GRAD.:     4.195 HEAT: -73.70819
 CYCLE:    45 TIME:   0.016 TIME LEFT:  2.00D  GRAD.:     5.064 HEAT: -73.71105
 CYCLE:    46 TIME:   0.008 TIME LEFT:  2.00D  GRAD.:     2.315 HEAT: -73.72753
 CYCLE:    47 TIME:   0.016 TIME LEFT:  2.00D  GRAD.:     3.558 HEAT: -73.73937
 CYCLE:    48 TIME:   0.008 TIME LEFT:  2.00D  GRAD.:     4.813 HEAT: -73.75537
 CYCLE:    49 TIME:   0.016 TIME LEFT:  2.00D  GRAD.:     2.962 HEAT: -73.78731
 CYCLE:    50 TIME:   0.008 TIME LEFT:  2.00D  GRAD.:     2.362 HEAT: -73.81796
 CYCLE:    51 TIME:   0.008 TIME LEFT:  2.00D  GRAD.:     4.721 HEAT: -73.84037
 CYCLE:    52 TIME:   0.016 TIME LEFT:  2.00D  GRAD.:     6.335 HEAT: -73.84052
 CYCLE:    53 TIME:   0.016 TIME LEFT:  2.00D  GRAD.:     2.516 HEAT: -73.85500
 CYCLE:    54 TIME:   0.008 TIME LEFT:  2.00D  GRAD.:     2.650 HEAT: -73.85750
 CYCLE:    55 TIME:   0.016 TIME LEFT:  2.00D  GRAD.:     1.745 HEAT: -73.86510
 CYCLE:    56 TIME:   0.008 TIME LEFT:  2.00D  GRAD.:     2.296 HEAT: -73.87096
 CYCLE:    57 TIME:   0.016 TIME LEFT:  2.00D  GRAD.:     2.139 HEAT: -73.87971
 CYCLE:    58 TIME:   0.008 TIME LEFT:  2.00D  GRAD.:     4.256 HEAT: -73.89575
 CYCLE:    59 TIME:   0.016 TIME LEFT:  2.00D  GRAD.:     3.783 HEAT: -73.90912
 CYCLE:    60 TIME:   0.008 TIME LEFT:  2.00D  GRAD.:     3.721 HEAT: -73.91978
 CYCLE:    61 TIME:   0.008 TIME LEFT:  2.00D  GRAD.:     1.625 HEAT: -73.93418
 CYCLE:    62 TIME:   0.016 TIME LEFT:  2.00D  GRAD.:     3.995 HEAT: -73.93908
 CYCLE:    63 TIME:   0.008 TIME LEFT:  2.00D  GRAD.:     0.923 HEAT: -73.94206

     GRADIENT =  0.92290 IS LESS THAN CUTOFF =  1.00000



 -------------------------------------------------------------------------------
 PM7 XYZ

 Lipophilicity_200 - geometry optimisation


     GEOMETRY OPTIMISED USING EIGENVECTOR FOLLOWING (EF).     
     SCF FIELD WAS ACHIEVED                                   


                              PM7 CALCULATION
                                                       MOPAC v23.0.3 Linux
                                                       Fri Jul 25 18:53:36 2025




          FINAL HEAT OF FORMATION =        -73.94207 KCAL/MOL =    -309.37361 KJ/MOL


          COSMO AREA              =        220.79 SQUARE ANGSTROMS
          COSMO VOLUME            =        222.57 CUBIC ANGSTROMS

          GRADIENT NORM           =          0.92290          =       0.18100 PER ATOM
          IONIZATION POTENTIAL    =          8.345696 EV
          HOMO LUMO ENERGIES (EV) =         -8.346  0.130
          NO. OF FILLED LEVELS    =         35
          MOLECULAR WEIGHT        =        179.2182         POINT GROUP:  C1  

          MOLECULAR DIMENSIONS (Angstroms)

            Atom       Atom       Distance
            H    22    H    14    10.76011
            H    19    H    25     4.90580
            H    15    H    18     2.75716


          SCF CALCULATIONS        =         77

          WALL-CLOCK TIME         =      0.820 SECONDS
          COMPUTATION TIME        =     16.270 SECONDS




   ATOM   CHEMICAL          X               Y               Z
  NUMBER   SYMBOL      (ANGSTROMS)     (ANGSTROMS)     (ANGSTROMS)

     1       C         -4.10490324  *  -0.71937175  *  -0.55120794  *
     2       C         -3.79776039  *  -0.04251187  *   0.77559164  *
     3       O         -2.78200864  *   0.94107246  *   0.61304742  *
     4       C         -1.49452471  *   0.52641545  *   0.47030800  *
     5       C         -0.62108688  *   1.56943387  *   0.11948411  *
     6       C          0.73086123  *   1.30631997  *  -0.02387387  *
     7       C          1.21402680  *   0.00204544  *   0.17728568  *
     8       N          2.59022301  *  -0.32242315  *   0.06462489  *
     9       C          3.51557010  *   0.41398007  *  -0.67198875  *
    10       O          3.21581975  *   1.42779093  *  -1.25867587  *
    11       C          4.90923121  *  -0.15652187  *  -0.66749363  *
    12       C          0.33250972  *  -1.02905353  *   0.53003058  *
    13       C         -1.02754388  *  -0.76977852  *   0.67669094  *
    14       H         -4.97360260  *  -1.38201852  *  -0.47365776  *
    15       H         -4.31919330  *   0.02507947  *  -1.33095201  *
    16       H         -3.25635548  *  -1.31564279  *  -0.91068903  *
    17       H         -4.63879745  *   0.58910225  *   1.12773550  *
    18       H         -3.52817581  *  -0.75663663  *   1.57170036  *
    19       H         -1.01666940  *   2.57219441  *  -0.03331749  *
    20       H          1.41435929  *   2.11554820  *  -0.29720085  *
    21       H          2.87916248  *  -1.19063785  *   0.49595221  *
    22       H          5.59145382  *   0.51985007  *  -1.21018579  *
    23       H          5.30920084  *  -0.27135464  *   0.34787516  *
    24       H          4.95561430  *  -1.13043414  *  -1.17184933  *
    25       H          0.70100627  *  -2.03955051  *   0.69035672  *
    26       H         -1.70081417  *  -1.57599449  *   0.94979494  *

                             CARTESIAN COORDINATES

   1    C       -4.104903242    -0.719371750    -0.551207945
   2    C       -3.797760388    -0.042511870     0.775591643
   3    O       -2.782008641     0.941072460     0.613047421
   4    C       -1.494524711     0.526415448     0.470308003
   5    C       -0.621086881     1.569433872     0.119484112
   6    C        0.730861225     1.306319966    -0.023873874
   7    C        1.214026803     0.002045444     0.177285684
   8    N        2.590223013    -0.322423152     0.064624889
   9    C        3.515570097     0.413980066    -0.671988747
  10    O        3.215819749     1.427790932    -1.258675873
  11    C        4.909231205    -0.156521874    -0.667493626
  12    C        0.332509716    -1.029053529     0.530030580
  13    C       -1.027543877    -0.769778516     0.676690938
  14    H       -4.973602602    -1.382018520    -0.473657762
  15    H       -4.319193301     0.025079468    -1.330952009
  16    H       -3.256355477    -1.315642794    -0.910689028
  17    H       -4.638797447     0.589102254     1.127735500
  18    H       -3.528175811    -0.756636626     1.571700356
  19    H       -1.016669402     2.572194408    -0.033317492
  20    H        1.414359293     2.115548195    -0.297200851
  21    H        2.879162482    -1.190637847     0.495952207
  22    H        5.591453823     0.519850067    -1.210185788
  23    H        5.309200840    -0.271354639     0.347875157
  24    H        4.955614303    -1.130434142    -1.171849326
  25    H        0.701006269    -2.039550513     0.690356716
  26    H       -1.700814166    -1.575994491     0.949794940


           Empirical Formula: C10 H13 N O2  =    26 atoms



      MOLECULAR POINT GROUP   :   C1  


                  EIGENVALUES  
 -37.05016 -30.77694 -30.43632 -29.92534 -27.11650 -26.72967 -25.83307 -24.68621
 -22.43257 -21.33363 -20.90572 -19.72728 -18.36198 -17.44876 -16.89806 -16.17323
 -15.82509 -15.45573 -15.16233 -14.68998 -14.45607 -14.21619 -13.99195 -13.79899
 -13.67665 -13.29053 -13.04626 -12.98129 -12.10357 -11.92062 -11.62354 -10.54939
 -10.44088  -9.95782  -8.34570   0.13001   0.30723   1.37860   1.82424   2.00256
   2.62745   3.42061   3.98879   4.04296   4.34983   4.45870   4.66310   4.75636
   4.95251   4.96259   5.00406   5.22126   5.30944   5.52520   5.59361   5.68454
   5.78362   5.86815   5.99655   6.12524   6.14935   6.36771   6.45154   6.55552
   6.77453


              NET ATOMIC CHARGES AND DIPOLE CONTRIBUTIONS

  ATOM NO.   TYPE          CHARGE      No. of ELECS.   s-Pop       p-Pop       
    1          C          -0.483717        4.4837     1.05706     3.42666
    2          C          -0.018593        4.0186     1.08757     2.93103
    3          O          -0.341052        6.3411     1.86490     4.47615
    4          C           0.222283        3.7777     1.08152     2.69619
    5          C          -0.209676        4.2097     1.07913     3.13054
    6          C          -0.135033        4.1350     1.08693     3.04810
    7          C           0.145431        3.8546     1.04807     2.80650
    8          N          -0.578944        5.5789     1.55215     4.02680
    9          C           0.612850        3.3871     1.07629     2.31086
   10          O          -0.508044        6.5080     1.87845     4.62959
   11          C          -0.534848        4.5348     1.06416     3.47069
   12          C          -0.185615        4.1856     1.07774     3.10787
   13          C          -0.256592        4.2566     1.07352     3.18307
   14          H           0.151558        0.8484     0.84844
   15          H           0.164030        0.8360     0.83597
   16          H           0.159539        0.8405     0.84046
   17          H           0.143510        0.8565     0.85649
   18          H           0.122876        0.8771     0.87712
   19          H           0.175644        0.8244     0.82436
   20          H           0.195303        0.8047     0.80470
   21          H           0.308552        0.6914     0.69145
   22          H           0.190500        0.8095     0.80950
   23          H           0.173172        0.8268     0.82683
   24          H           0.173913        0.8261     0.82609
   25          H           0.151252        0.8487     0.84875
   26          H           0.161701        0.8383     0.83830
 DIPOLE           X         Y         Z       TOTAL
 POINT-CHG.     0.292    -3.877     1.534     4.179
 HYBRID        -0.013    -0.401     0.048     0.404
 SUM            0.279    -4.278     1.583     4.570


          ATOMIC ORBITAL ELECTRON POPULATIONS

     Atom    s        px        py        pz   
    1  C   1.05706   1.17693   1.16161   1.08812
    2  C   1.08757   0.92532   0.98802   1.01768
    3  O   1.86490   1.22104   1.38071   1.87439
    4  C   1.08152   0.80930   0.95853   0.92837
    5  C   1.07913   0.99150   1.07991   1.05914
    6  C   1.08693   1.02354   1.03052   0.99405
    7  C   1.04807   0.80159   0.97916   1.02575
    8  N   1.55215   1.15391   1.32838   1.54450
    9  C   1.07629   0.81777   0.77407   0.71902
   10  O   1.87845   1.81705   1.32752   1.48502
   11  C   1.06416   1.08415   1.18844   1.19811
   12  C   1.07774   0.99438   1.06035   1.05315
   13  C   1.07352   1.02907   1.04862   1.10538
   14  H   0.84844
   15  H   0.83597
   16  H   0.84046
   17  H   0.85649
   18  H   0.87712
   19  H   0.82436
   20  H   0.80470
   21  H   0.69145
   22  H   0.80950
   23  H   0.82683
   24  H   0.82609
   25  H   0.84875
   26  H   0.83830

 **********************
 *                    *
 * JOB ENDED NORMALLY *
 *                    *
 **********************



 TOTAL JOB TIME:             0.82 SECONDS

 == MOPAC DONE ==
