 *******************************************************************************
 **                                                                           **
 **                              MOPAC v23.0.3                                **
 **                                                                           **
 *******************************************************************************
 **          Digital Object Identifier (DOI): 10.5281/zenodo.6511958          **
 **    Visit the DOI location for information on how to cite this program.    **
 *******************************************************************************

                              PM7 CALCULATION RESULTS

 *******************************************************************************
 *  CALCULATION DONE:                                Fri Jul 25 20:09:14 2025  *
 *  PM7        - The PM7 Hamiltonian to be used
 *  XYZ        - CARTESIAN COORDINATE SYSTEM TO BE USED
 *  T=         - A TIME OF 172800.0 SECONDS REQUESTED
 *  DUMP=N     - RESTART FILE WRITTEN EVERY 7200.0 SECONDS REQUESTED
 *******************************************************************************
PM7 XYZ

 Lipophilicity_575 - geometry optimisation
   ATOM   CHEMICAL          X               Y               Z
  NUMBER   SYMBOL      (ANGSTROMS)     (ANGSTROMS)     (ANGSTROMS)

     1       C         -3.43309000  *   3.92779800  *   1.79699200  *
     2       C         -2.99714000  *   4.01366200  *   0.33812000  *
     3       N         -3.26400500  *   2.74106800  *  -0.35282600  *
     4       C         -2.30396300  *   1.76833500  *  -0.32383300  *
     5       C         -2.50535600  *   0.52231600  *  -0.94369900  *
     6       C         -3.74612300  *   0.28354200  *  -1.55497900  *
     7       C         -4.72927400  *   1.27782300  *  -1.58443100  *
     8       C         -6.06181500  *   1.00231000  *  -2.22665200  *
     9       C         -4.47320600  *   2.50989400  *  -0.95942400  *
    10       O         -5.36913600  *   3.40009800  *  -0.95224500  *
    11       C         -1.44103300  *  -0.57287000  *  -0.83673500  *
    12       N         -1.65996000  *  -1.63255000  *  -1.83555500  *
    13       C         -1.91729800  *  -2.76267300  *  -1.25609300  *
    14       N         -2.17393300  *  -3.95845600  *  -1.99142500  *
    15       C         -1.92306400  *  -2.63500700  *   0.18827200  *
    16       C         -2.16812200  *  -3.56051800  *   1.20683200  *
    17       F         -2.44725500  *  -4.85852900  *   0.93581200  *
    18       C         -2.12132000  *  -3.10962000  *   2.53677000  *
    19       C         -1.84042700  *  -1.75857200  *   2.82123700  *
    20       C         -1.60285800  *  -0.84862500  *   1.77826200  *
    21       C         -1.64265800  *  -1.31899300  *   0.46071100  *
    22       C         -0.02366900  *  -0.02815100  *  -1.03914000  *
    23       C          0.24186400  *   0.77828000  *  -2.16185700  *
    24       C          1.52390100  *   1.27427700  *  -2.39730900  *
    25       C          2.57084500  *   0.95662400  *  -1.53266700  *
    26       C          2.34974900  *   0.11871100  *  -0.42553000  *
    27       C          1.05197700  *  -0.37181400  *  -0.19073300  *
    28       C          3.45111900  *  -0.23596700  *   0.50619000  *
    29       C          4.78586600  *  -0.33523000  *   0.07103900  *
    30       C          5.78714800  *  -0.67614800  *   0.98751700  *
    31       C          5.45256400  *  -0.91952500  *   2.32214500  *
    32       C          4.11879700  *  -0.82244700  *   2.71923100  *
    33       N          3.16123900  *  -0.48898600  *   1.81442400  *
    34       C          7.15605100  *  -0.78426100  *   0.55605100  *
    35       C          8.30264600  *  -0.87464500  *   0.19472700  *
    36       C          9.69396000  *  -0.98433400  *  -0.24352200  *
    37       H         -2.86870000  *   3.12522600  *   2.31719800  *
    38       H         -4.51974200  *   3.70889400  *   1.85955400  *
    39       H         -3.23225300  *   4.89423800  *   2.30540100  *
    40       H         -3.52765600  *   4.85427600  *  -0.15980600  *
    41       H         -1.91317100  *   4.26047000  *   0.29479800  *
    42       H         -1.37064400  *   1.95499400  *   0.19479100  *
    43       H         -3.95977800  *  -0.67895100  *  -2.00148100  *
    44       H         -6.83845300  *   0.89725600  *  -1.44056500  *
    45       H         -6.33823000  *   1.83820400  *  -2.90293800  *
    46       H         -6.03878000  *   0.06976600  *  -2.82951800  *
    47       H         -2.16137100  *  -3.94224500  *  -3.03528200  *
    48       H         -2.37531600  *  -4.85996300  *  -1.50855900  *
    49       H         -2.30485000  *  -3.80218200  *   3.34798600  *
    50       H         -1.80804400  *  -1.41984300  *   3.84872400  *
    51       H         -1.38412900  *   0.18869700  *   1.99356800  *
    52       H         -0.55074600  *   1.03000400  *  -2.85570700  *
    53       H          1.70618300  *   1.91085200  *  -3.25375400  *
    54       H          3.54677000  *   1.38171400  *  -1.72545400  *
    55       H          0.89599700  *  -1.03787800  *   0.64603900  *
    56       H          5.04609800  *  -0.17570800  *  -0.96779700  *
    57       H          6.21305300  *  -1.18607300  *   3.04628600  *
    58       H          3.84336400  *  -1.01224200  *   3.74811900  *
    59       H          9.86192200  *  -0.31528100  *  -1.11246200  *
    60       H          9.90783900  *  -2.03264100  *  -0.53720000  *
    61       H         10.36761000  *  -0.68839800  *   0.58690800  *



          CARTESIAN COORDINATES 

    NO.       ATOM           X           Y           Z

     1         C         -3.4331      3.9278      1.7970
     2         C         -2.9971      4.0137      0.3381
     3         N         -3.2640      2.7411     -0.3528
     4         C         -2.3040      1.7683     -0.3238
     5         C         -2.5054      0.5223     -0.9437
     6         C         -3.7461      0.2835     -1.5550
     7         C         -4.7293      1.2778     -1.5844
     8         C         -6.0618      1.0023     -2.2267
     9         C         -4.4732      2.5099     -0.9594
    10         O         -5.3691      3.4001     -0.9522
    11         C         -1.4410     -0.5729     -0.8367
    12         N         -1.6600     -1.6326     -1.8356
    13         C         -1.9173     -2.7627     -1.2561
    14         N         -2.1739     -3.9585     -1.9914
    15         C         -1.9231     -2.6350      0.1883
    16         C         -2.1681     -3.5605      1.2068
    17         F         -2.4473     -4.8585      0.9358
    18         C         -2.1213     -3.1096      2.5368
    19         C         -1.8404     -1.7586      2.8212
    20         C         -1.6029     -0.8486      1.7783
    21         C         -1.6427     -1.3190      0.4607
    22         C         -0.0237     -0.0282     -1.0391
    23         C          0.2419      0.7783     -2.1619
    24         C          1.5239      1.2743     -2.3973
    25         C          2.5708      0.9566     -1.5327
    26         C          2.3497      0.1187     -0.4255
    27         C          1.0520     -0.3718     -0.1907
    28         C          3.4511     -0.2360      0.5062
    29         C          4.7859     -0.3352      0.0710
    30         C          5.7871     -0.6761      0.9875
    31         C          5.4526     -0.9195      2.3221
    32         C          4.1188     -0.8224      2.7192
    33         N          3.1612     -0.4890      1.8144
    34         C          7.1561     -0.7843      0.5561
    35         C          8.3026     -0.8746      0.1947
    36         C          9.6940     -0.9843     -0.2435
    37         H         -2.8687      3.1252      2.3172
    38         H         -4.5197      3.7089      1.8596
    39         H         -3.2323      4.8942      2.3054
    40         H         -3.5277      4.8543     -0.1598
    41         H         -1.9132      4.2605      0.2948
    42         H         -1.3706      1.9550      0.1948
    43         H         -3.9598     -0.6790     -2.0015
    44         H         -6.8385      0.8973     -1.4406
    45         H         -6.3382      1.8382     -2.9029
    46         H         -6.0388      0.0698     -2.8295
    47         H         -2.1614     -3.9422     -3.0353
    48         H         -2.3753     -4.8600     -1.5086
    49         H         -2.3049     -3.8022      3.3480
    50         H         -1.8080     -1.4198      3.8487
    51         H         -1.3841      0.1887      1.9936
    52         H         -0.5507      1.0300     -2.8557
    53         H          1.7062      1.9109     -3.2538
    54         H          3.5468      1.3817     -1.7255
    55         H          0.8960     -1.0379      0.6460
    56         H          5.0461     -0.1757     -0.9678
    57         H          6.2131     -1.1861      3.0463
    58         H          3.8434     -1.0122      3.7481
    59         H          9.8619     -0.3153     -1.1125
    60         H          9.9078     -2.0326     -0.5372
    61         H         10.3676     -0.6884      0.5869

 General Reference for PM7:
 "Optimization of Parameters for Semiempirical Methods VI: More Modifications to the 
 NDDO Approximations and Re-optimization of Parameters", J. J. P. Stewart, J. Mol. Mod., 1:32, 19 (2013)
 https://link.springer.com/article/10.1007/s00894-012-1667-x

           Empirical Formula: C30 H25 N4 O F  =    61 atoms



      MOLECULAR POINT GROUP   :   C1  


      RHF CALCULATION, NO. OF DOUBLY OCCUPIED LEVELS = 89


          Geometry optimization using L-BFGS
 CYCLE:     1 TIME:   0.102 TIME LEFT:  2.00D  GRAD.:   272.907 HEAT:  98.58359
 CYCLE:     2 TIME:   0.047 TIME LEFT:  2.00D  GRAD.:   265.398 HEAT:  97.84918
 CYCLE:     3 TIME:   0.070 TIME LEFT:  2.00D  GRAD.:   108.034 HEAT:  83.11647
 CYCLE:     4 TIME:   0.062 TIME LEFT:  2.00D  GRAD.:   266.019 HEAT:  97.84997
 CYCLE:     5 TIME:   0.070 TIME LEFT:  2.00D  GRAD.:   108.541 HEAT:  83.12494
 CYCLE:     6 TIME:   0.055 TIME LEFT:  2.00D  GRAD.:    95.562 HEAT:  81.59607
 CYCLE:     7 TIME:   0.055 TIME LEFT:  2.00D  GRAD.:    57.131 HEAT:  80.70890
 CYCLE:     8 TIME:   0.055 TIME LEFT:  2.00D  GRAD.:    41.282 HEAT:  79.48292
 CYCLE:     9 TIME:   0.062 TIME LEFT:  2.00D  GRAD.:    35.931 HEAT:  78.97338
 CYCLE:    10 TIME:   0.062 TIME LEFT:  2.00D  GRAD.:    39.901 HEAT:  78.18038
 CYCLE:    11 TIME:   0.062 TIME LEFT:  2.00D  GRAD.:    51.937 HEAT:  78.02838
 CYCLE:    12 TIME:   0.055 TIME LEFT:  2.00D  GRAD.:    17.892 HEAT:  77.64499
 CYCLE:    13 TIME:   0.047 TIME LEFT:  2.00D  GRAD.:    12.971 HEAT:  77.50876
 CYCLE:    14 TIME:   0.055 TIME LEFT:  2.00D  GRAD.:    15.045 HEAT:  77.27063
 CYCLE:    15 TIME:   0.055 TIME LEFT:  2.00D  GRAD.:    14.599 HEAT:  77.05721
 CYCLE:    16 TIME:   0.055 TIME LEFT:  2.00D  GRAD.:    35.794 HEAT:  76.98527
 CYCLE:    17 TIME:   0.055 TIME LEFT:  2.00D  GRAD.:    11.777 HEAT:  76.73519
 CYCLE:    18 TIME:   0.055 TIME LEFT:  2.00D  GRAD.:     7.645 HEAT:  76.67864
 CYCLE:    19 TIME:   0.055 TIME LEFT:  2.00D  GRAD.:     8.324 HEAT:  76.60129
 CYCLE:    20 TIME:   0.055 TIME LEFT:  2.00D  GRAD.:    13.332 HEAT:  76.54837
 CYCLE:    21 TIME:   0.055 TIME LEFT:  2.00D  GRAD.:    12.934 HEAT:  76.49630
 CYCLE:    22 TIME:   0.047 TIME LEFT:  2.00D  GRAD.:     7.185 HEAT:  76.45412
 CYCLE:    23 TIME:   0.055 TIME LEFT:  2.00D  GRAD.:     6.890 HEAT:  76.42584
 CYCLE:    24 TIME:   0.055 TIME LEFT:  2.00D  GRAD.:     8.321 HEAT:  76.37854
 CYCLE:    25 TIME:   0.055 TIME LEFT:  2.00D  GRAD.:    13.502 HEAT:  76.34255
 CYCLE:    26 TIME:   0.055 TIME LEFT:  2.00D  GRAD.:     5.591 HEAT:  76.29828
 CYCLE:    27 TIME:   0.055 TIME LEFT:  2.00D  GRAD.:     4.944 HEAT:  76.27785
 CYCLE:    28 TIME:   0.055 TIME LEFT:  2.00D  GRAD.:     5.398 HEAT:  76.25019
 CYCLE:    29 TIME:   0.055 TIME LEFT:  2.00D  GRAD.:    10.145 HEAT:  76.22673
 CYCLE:    30 TIME:   0.055 TIME LEFT:  2.00D  GRAD.:     4.422 HEAT:  76.20406
 CYCLE:    31 TIME:   0.062 TIME LEFT:  2.00D  GRAD.:     3.202 HEAT:  76.19403
 CYCLE:    32 TIME:   0.055 TIME LEFT:  2.00D  GRAD.:     3.523 HEAT:  76.17972
 CYCLE:    33 TIME:   0.055 TIME LEFT:  2.00D  GRAD.:     8.039 HEAT:  76.17095
 CYCLE:    34 TIME:   0.047 TIME LEFT:  2.00D  GRAD.:     3.648 HEAT:  76.15767
 CYCLE:    35 TIME:   0.055 TIME LEFT:  2.00D  GRAD.:     2.909 HEAT:  76.14909
 CYCLE:    36 TIME:   0.055 TIME LEFT:  2.00D  GRAD.:     3.714 HEAT:  76.14119
 CYCLE:    37 TIME:   0.055 TIME LEFT:  2.00D  GRAD.:    12.477 HEAT:  76.13907
 CYCLE:    38 TIME:   0.055 TIME LEFT:  2.00D  GRAD.:     4.034 HEAT:  76.12313
 CYCLE:    39 TIME:   0.047 TIME LEFT:  2.00D  GRAD.:     3.359 HEAT:  76.11538
 CYCLE:    40 TIME:   0.055 TIME LEFT:  2.00D  GRAD.:     4.011 HEAT:  76.10545
 CYCLE:    41 TIME:   0.055 TIME LEFT:  2.00D  GRAD.:     4.215 HEAT:  76.08959
 CYCLE:    42 TIME:   0.055 TIME LEFT:  2.00D  GRAD.:     7.242 HEAT:  76.07864
 CYCLE:    43 TIME:   0.055 TIME LEFT:  2.00D  GRAD.:     3.962 HEAT:  76.06270
 CYCLE:    44 TIME:   0.047 TIME LEFT:  2.00D  GRAD.:     2.660 HEAT:  76.05518
 CYCLE:    45 TIME:   0.055 TIME LEFT:  2.00D  GRAD.:     2.776 HEAT:  76.04839
 CYCLE:    46 TIME:   0.055 TIME LEFT:  2.00D  GRAD.:     4.846 HEAT:  76.04176
 CYCLE:    47 TIME:   0.062 TIME LEFT:  2.00D  GRAD.:     2.631 HEAT:  76.03451
 CYCLE:    48 TIME:   0.062 TIME LEFT:  2.00D  GRAD.:     2.233 HEAT:  76.02950
 CYCLE:    49 TIME:   0.047 TIME LEFT:  2.00D  GRAD.:     2.493 HEAT:  76.02539
 CYCLE:    50 TIME:   0.055 TIME LEFT:  2.00D  GRAD.:     2.338 HEAT:  76.02027
 CYCLE:    51 TIME:   0.055 TIME LEFT:  2.00D  GRAD.:     5.355 HEAT:  76.01780
 CYCLE:    52 TIME:   0.055 TIME LEFT:  2.00D  GRAD.:     3.061 HEAT:  76.01318
 CYCLE:    53 TIME:   0.055 TIME LEFT:  2.00D  GRAD.:     1.786 HEAT:  76.01145
 CYCLE:    54 TIME:   0.047 TIME LEFT:  2.00D  GRAD.:     1.596 HEAT:  76.00939
 CYCLE:    55 TIME:   0.062 TIME LEFT:  2.00D  GRAD.:     2.598 HEAT:  76.00325
 CYCLE:    56 TIME:   0.055 TIME LEFT:  2.00D  GRAD.:     3.237 HEAT:  75.99720
 CYCLE:    57 TIME:   0.055 TIME LEFT:  2.00D  GRAD.:     2.661 HEAT:  75.99224
 CYCLE:    58 TIME:   0.055 TIME LEFT:  2.00D  GRAD.:     2.017 HEAT:  75.98819
 CYCLE:    59 TIME:   0.055 TIME LEFT:  2.00D  GRAD.:     2.967 HEAT:  75.98237
 CYCLE:    60 TIME:   0.055 TIME LEFT:  2.00D  GRAD.:     3.181 HEAT:  75.97779
 CYCLE:    61 TIME:   0.055 TIME LEFT:  2.00D  GRAD.:     2.523 HEAT:  75.97243
 CYCLE:    62 TIME:   0.070 TIME LEFT:  2.00D  GRAD.:     3.182 HEAT:  75.96617
 CYCLE:    63 TIME:   0.055 TIME LEFT:  2.00D  GRAD.:     3.149 HEAT:  75.96123
 CYCLE:    64 TIME:   0.055 TIME LEFT:  2.00D  GRAD.:     2.730 HEAT:  75.95527
 CYCLE:    65 TIME:   0.055 TIME LEFT:  2.00D  GRAD.:     3.348 HEAT:  75.94443
 CYCLE:    66 TIME:   0.062 TIME LEFT:  2.00D  GRAD.:     4.821 HEAT:  75.93869
 CYCLE:    67 TIME:   0.055 TIME LEFT:  2.00D  GRAD.:     2.633 HEAT:  75.93220
 CYCLE:    68 TIME:   0.055 TIME LEFT:  2.00D  GRAD.:     2.468 HEAT:  75.92699
 CYCLE:    69 TIME:   0.055 TIME LEFT:  2.00D  GRAD.:     7.519 HEAT:  75.92736
 CYCLE:    70 TIME:   0.055 TIME LEFT:  2.00D  GRAD.:     1.929 HEAT:  75.92244
 CYCLE:    71 TIME:   0.047 TIME LEFT:  2.00D  GRAD.:     1.538 HEAT:  75.92150
 CYCLE:    72 TIME:   0.055 TIME LEFT:  2.00D  GRAD.:     1.854 HEAT:  75.91835
 CYCLE:    73 TIME:   0.062 TIME LEFT:  2.00D  GRAD.:     2.039 HEAT:  75.91502
 CYCLE:    74 TIME:   0.055 TIME LEFT:  2.00D  GRAD.:     7.291 HEAT:  75.91762
 CYCLE:    75 TIME:   0.055 TIME LEFT:  2.00D  GRAD.:     2.101 HEAT:  75.90975
 CYCLE:    76 TIME:   0.055 TIME LEFT:  2.00D  GRAD.:     1.321 HEAT:  75.90779
 CYCLE:    77 TIME:   0.055 TIME LEFT:  2.00D  GRAD.:     1.965 HEAT:  75.90445
 CYCLE:    78 TIME:   0.055 TIME LEFT:  2.00D  GRAD.:     2.504 HEAT:  75.90063
 CYCLE:    79 TIME:   0.094 TIME LEFT:  2.00D  GRAD.:     5.252 HEAT:  75.89786
 CYCLE:    80 TIME:   0.047 TIME LEFT:  2.00D  GRAD.:     2.385 HEAT:  75.89135
 CYCLE:    81 TIME:   0.055 TIME LEFT:  2.00D  GRAD.:     1.629 HEAT:  75.88854
 CYCLE:    82 TIME:   0.055 TIME LEFT:  2.00D  GRAD.:     2.011 HEAT:  75.88504
 CYCLE:    83 TIME:   0.055 TIME LEFT:  2.00D  GRAD.:     2.663 HEAT:  75.88230
 CYCLE:    84 TIME:   0.055 TIME LEFT:  2.00D  GRAD.:     2.936 HEAT:  75.87846
 CYCLE:    85 TIME:   0.055 TIME LEFT:  2.00D  GRAD.:     3.916 HEAT:  75.87569
 CYCLE:    86 TIME:   0.055 TIME LEFT:  2.00D  GRAD.:     2.286 HEAT:  75.87241
 CYCLE:    87 TIME:   0.047 TIME LEFT:  2.00D  GRAD.:     2.444 HEAT:  75.86940
 CYCLE:    88 TIME:   0.055 TIME LEFT:  2.00D  GRAD.:     2.641 HEAT:  75.86446
 CYCLE:    89 TIME:   0.062 TIME LEFT:  2.00D  GRAD.:     3.037 HEAT:  75.85832
 CYCLE:    90 TIME:   0.055 TIME LEFT:  2.00D  GRAD.:     4.006 HEAT:  75.85336
 CYCLE:    91 TIME:   0.055 TIME LEFT:  2.00D  GRAD.:     4.022 HEAT:  75.84743
 CYCLE:    92 TIME:   0.055 TIME LEFT:  2.00D  GRAD.:     3.332 HEAT:  75.84185
 CYCLE:    93 TIME:   0.055 TIME LEFT:  2.00D  GRAD.:     4.639 HEAT:  75.83440
 CYCLE:    94 TIME:   0.055 TIME LEFT:  2.00D  GRAD.:     5.852 HEAT:  75.82437
 CYCLE:    95 TIME:   0.055 TIME LEFT:  2.00D  GRAD.:     5.024 HEAT:  75.82033
 CYCLE:    96 TIME:   0.055 TIME LEFT:  2.00D  GRAD.:     2.447 HEAT:  75.81507
 CYCLE:    97 TIME:   0.055 TIME LEFT:  2.00D  GRAD.:     2.274 HEAT:  75.81287
 CYCLE:    98 TIME:   0.055 TIME LEFT:  2.00D  GRAD.:     2.271 HEAT:  75.80891
 CYCLE:    99 TIME:   0.086 TIME LEFT:  2.00D  GRAD.:     1.981 HEAT:  75.80246
 CYCLE:   100 TIME:   0.055 TIME LEFT:  2.00D  GRAD.:     4.100 HEAT:  75.79928
 CYCLE:   101 TIME:   0.055 TIME LEFT:  2.00D  GRAD.:     2.466 HEAT:  75.79547
 CYCLE:   102 TIME:   0.055 TIME LEFT:  2.00D  GRAD.:     2.102 HEAT:  75.79244
 CYCLE:   103 TIME:   0.062 TIME LEFT:  2.00D  GRAD.:     4.193 HEAT:  75.78851
 CYCLE:   104 TIME:   0.047 TIME LEFT:  2.00D  GRAD.:     2.024 HEAT:  75.78267
 CYCLE:   105 TIME:   0.062 TIME LEFT:  2.00D  GRAD.:     1.829 HEAT:  75.77842
 CYCLE:   106 TIME:   0.055 TIME LEFT:  2.00D  GRAD.:     2.806 HEAT:  75.77448
 CYCLE:   107 TIME:   0.055 TIME LEFT:  2.00D  GRAD.:     3.037 HEAT:  75.77051
 CYCLE:   108 TIME:   0.062 TIME LEFT:  2.00D  GRAD.:     2.408 HEAT:  75.76583
 CYCLE:   109 TIME:   0.055 TIME LEFT:  2.00D  GRAD.:     2.844 HEAT:  75.76057
 CYCLE:   110 TIME:   0.055 TIME LEFT:  2.00D  GRAD.:     2.702 HEAT:  75.75578
 CYCLE:   111 TIME:   0.055 TIME LEFT:  2.00D  GRAD.:     2.260 HEAT:  75.75139
 CYCLE:   112 TIME:   0.055 TIME LEFT:  2.00D  GRAD.:     3.476 HEAT:  75.74789
 CYCLE:   113 TIME:   0.055 TIME LEFT:  2.00D  GRAD.:     2.933 HEAT:  75.74269
 CYCLE:   114 TIME:   0.055 TIME LEFT:  2.00D  GRAD.:     3.165 HEAT:  75.73954
 CYCLE:   115 TIME:   0.055 TIME LEFT:  2.00D  GRAD.:     9.751 HEAT:  75.74288
 CYCLE:   116 TIME:   0.055 TIME LEFT:  2.00D  GRAD.:     3.844 HEAT:  75.73622
 CYCLE:   117 TIME:   0.055 TIME LEFT:  2.00D  GRAD.:     1.859 HEAT:  75.73284
 CYCLE:   118 TIME:   0.062 TIME LEFT:  2.00D  GRAD.:     1.770 HEAT:  75.73517
 CYCLE:   119 TIME:   0.062 TIME LEFT:  2.00D  GRAD.:     4.455 HEAT:  75.72783
 CYCLE:   120 TIME:   0.055 TIME LEFT:  2.00D  GRAD.:    10.199 HEAT:  75.73549
 CYCLE:   121 TIME:   0.047 TIME LEFT:  2.00D  GRAD.:     1.963 HEAT:  75.72070
 CYCLE:   122 TIME:   0.055 TIME LEFT:  2.00D  GRAD.:     1.374 HEAT:  75.71947
 CYCLE:   123 TIME:   0.070 TIME LEFT:  2.00D  GRAD.:     1.838 HEAT:  75.71860
 CYCLE:   124 TIME:   0.062 TIME LEFT:  2.00D  GRAD.:     2.258 HEAT:  75.71333
 CYCLE:   125 TIME:   0.062 TIME LEFT:  2.00D  GRAD.:     6.396 HEAT:  75.71526
 CYCLE:   126 TIME:   0.055 TIME LEFT:  2.00D  GRAD.:     1.556 HEAT:  75.70823
 CYCLE:   127 TIME:   0.062 TIME LEFT:  2.00D  GRAD.:     1.210 HEAT:  75.70712
 CYCLE:   128 TIME:   0.055 TIME LEFT:  2.00D  GRAD.:     1.989 HEAT:  75.70286
 CYCLE:   129 TIME:   0.062 TIME LEFT:  2.00D  GRAD.:     3.852 HEAT:  75.69980
 CYCLE:   130 TIME:   0.047 TIME LEFT:  2.00D  GRAD.:     2.500 HEAT:  75.69673
 CYCLE:   131 TIME:   0.062 TIME LEFT:  2.00D  GRAD.:     2.425 HEAT:  75.69464
 CYCLE:   132 TIME:   0.047 TIME LEFT:  2.00D  GRAD.:     2.435 HEAT:  75.69123
 CYCLE:   133 TIME:   0.062 TIME LEFT:  2.00D  GRAD.:     5.607 HEAT:  75.68590
 CYCLE:   134 TIME:   0.055 TIME LEFT:  2.00D  GRAD.:     2.301 HEAT:  75.68120
 CYCLE:   135 TIME:   0.055 TIME LEFT:  2.00D  GRAD.:     2.336 HEAT:  75.67780
 CYCLE:   136 TIME:   0.055 TIME LEFT:  2.00D  GRAD.:     2.930 HEAT:  75.67509
 CYCLE:   137 TIME:   0.062 TIME LEFT:  2.00D  GRAD.:     5.758 HEAT:  75.66259
 CYCLE:   138 TIME:   0.055 TIME LEFT:  2.00D  GRAD.:     3.813 HEAT:  75.65246
 CYCLE:   139 TIME:   0.055 TIME LEFT:  2.00D  GRAD.:     4.398 HEAT:  75.64168
 CYCLE:   140 TIME:   0.062 TIME LEFT:  2.00D  GRAD.:     6.739 HEAT:  75.62787
 CYCLE:   141 TIME:   0.055 TIME LEFT:  2.00D  GRAD.:     6.445 HEAT:  75.62190
 CYCLE:   142 TIME:   0.062 TIME LEFT:  2.00D  GRAD.:     7.006 HEAT:  75.59682
 CYCLE:   143 TIME:   0.047 TIME LEFT:  2.00D  GRAD.:     5.732 HEAT:  75.57937
 CYCLE:   144 TIME:   0.070 TIME LEFT:  2.00D  GRAD.:     5.508 HEAT:  75.57308
 CYCLE:   145 TIME:   0.055 TIME LEFT:  2.00D  GRAD.:     8.654 HEAT:  75.56037
 CYCLE:   146 TIME:   0.055 TIME LEFT:  2.00D  GRAD.:     9.032 HEAT:  75.55003
 CYCLE:   147 TIME:   0.055 TIME LEFT:  2.00D  GRAD.:     4.473 HEAT:  75.54120
 CYCLE:   148 TIME:   0.055 TIME LEFT:  2.00D  GRAD.:     2.916 HEAT:  75.53385
 CYCLE:   149 TIME:   0.055 TIME LEFT:  2.00D  GRAD.:     4.006 HEAT:  75.52587
 CYCLE:   150 TIME:   0.062 TIME LEFT:  2.00D  GRAD.:     3.519 HEAT:  75.51665
 CYCLE:   151 TIME:   0.062 TIME LEFT:  2.00D  GRAD.:     4.809 HEAT:  75.51509
 CYCLE:   152 TIME:   0.055 TIME LEFT:  2.00D  GRAD.:    24.332 HEAT:  75.60743
 CYCLE:   153 TIME:   0.062 TIME LEFT:  2.00D  GRAD.:    10.167 HEAT:  75.52794
 CYCLE:   154 TIME:   0.055 TIME LEFT:  2.00D  GRAD.:     4.226 HEAT:  75.50230
 CYCLE:   155 TIME:   0.055 TIME LEFT:  2.00D  GRAD.:     2.952 HEAT:  75.49328
 CYCLE:   156 TIME:   0.062 TIME LEFT:  2.00D  GRAD.:     4.530 HEAT:  75.50531
 CYCLE:   157 TIME:   0.055 TIME LEFT:  2.00D  GRAD.:     2.518 HEAT:  75.48341
 CYCLE:   158 TIME:   0.062 TIME LEFT:  2.00D  GRAD.:     7.343 HEAT:  75.50490
 CYCLE:   159 TIME:   0.062 TIME LEFT:  2.00D  GRAD.:    20.466 HEAT:  75.53852
 CYCLE:   160 TIME:   0.062 TIME LEFT:  2.00D  GRAD.:    19.722 HEAT:  75.51127
 CYCLE:   161 TIME:   0.055 TIME LEFT:  2.00D  GRAD.:     2.836 HEAT:  75.47317
 CYCLE:   162 TIME:   0.055 TIME LEFT:  2.00D  GRAD.:     2.201 HEAT:  75.47072
 CYCLE:   163 TIME:   0.062 TIME LEFT:  2.00D  GRAD.:     4.794 HEAT:  75.47762
 CYCLE:   164 TIME:   0.055 TIME LEFT:  2.00D  GRAD.:     2.832 HEAT:  75.46422
 CYCLE:   165 TIME:   0.062 TIME LEFT:  2.00D  GRAD.:     3.462 HEAT:  75.46360
 CYCLE:   166 TIME:   0.055 TIME LEFT:  2.00D  GRAD.:     2.399 HEAT:  75.45771
 CYCLE:   167 TIME:   0.055 TIME LEFT:  2.00D  GRAD.:     1.461 HEAT:  75.45304
 CYCLE:   168 TIME:   0.062 TIME LEFT:  2.00D  GRAD.:     2.038 HEAT:  75.44869
 CYCLE:   169 TIME:   0.062 TIME LEFT:  2.00D  GRAD.:     4.599 HEAT:  75.44974
 CYCLE:   170 TIME:   0.047 TIME LEFT:  2.00D  GRAD.:    11.575 HEAT:  75.45490
 CYCLE:   171 TIME:   0.055 TIME LEFT:  2.00D  GRAD.:     1.835 HEAT:  75.43665
 CYCLE:   172 TIME:   0.055 TIME LEFT:  2.00D  GRAD.:     1.358 HEAT:  75.43524
 CYCLE:   173 TIME:   0.062 TIME LEFT:  2.00D  GRAD.:     4.792 HEAT:  75.43394
 CYCLE:   174 TIME:   0.055 TIME LEFT:  2.00D  GRAD.:     2.536 HEAT:  75.42638
 CYCLE:   175 TIME:   0.055 TIME LEFT:  2.00D  GRAD.:     3.603 HEAT:  75.42479
 CYCLE:   176 TIME:   0.055 TIME LEFT:  2.00D  GRAD.:     4.788 HEAT:  75.42213
 CYCLE:   177 TIME:   0.055 TIME LEFT:  2.00D  GRAD.:     3.052 HEAT:  75.41775
 CYCLE:   178 TIME:   0.055 TIME LEFT:  2.00D  GRAD.:     3.284 HEAT:  75.41583
 CYCLE:   179 TIME:   0.062 TIME LEFT:  2.00D  GRAD.:     8.371 HEAT:  75.41769
 CYCLE:   180 TIME:   0.047 TIME LEFT:  2.00D  GRAD.:     2.958 HEAT:  75.40759
 CYCLE:   181 TIME:   0.055 TIME LEFT:  2.00D  GRAD.:     1.487 HEAT:  75.40351
 CYCLE:   182 TIME:   0.062 TIME LEFT:  2.00D  GRAD.:     2.409 HEAT:  75.40122
 CYCLE:   183 TIME:   0.062 TIME LEFT:  2.00D  GRAD.:     2.173 HEAT:  75.39583
 CYCLE:   184 TIME:   0.062 TIME LEFT:  2.00D  GRAD.:     2.882 HEAT:  75.39214
 CYCLE:   185 TIME:   0.055 TIME LEFT:  2.00D  GRAD.:     2.888 HEAT:  75.38761
 CYCLE:   186 TIME:   0.047 TIME LEFT:  2.00D  GRAD.:     2.065 HEAT:  75.38274
 CYCLE:   187 TIME:   0.062 TIME LEFT:  2.00D  GRAD.:     2.545 HEAT:  75.37720
 CYCLE:   188 TIME:   0.062 TIME LEFT:  2.00D  GRAD.:     4.611 HEAT:  75.37550
 CYCLE:   189 TIME:   0.055 TIME LEFT:  2.00D  GRAD.:     1.841 HEAT:  75.37045
 CYCLE:   190 TIME:   0.055 TIME LEFT:  2.00D  GRAD.:     1.531 HEAT:  75.36763
 CYCLE:   191 TIME:   0.055 TIME LEFT:  2.00D  GRAD.:     2.354 HEAT:  75.36338
 CYCLE:   192 TIME:   0.062 TIME LEFT:  2.00D  GRAD.:     6.271 HEAT:  75.36424
 CYCLE:   193 TIME:   0.055 TIME LEFT:  2.00D  GRAD.:     5.388 HEAT:  75.35935
 CYCLE:   194 TIME:   0.055 TIME LEFT:  2.00D  GRAD.:     2.677 HEAT:  75.35735
 CYCLE:   195 TIME:   0.062 TIME LEFT:  2.00D  GRAD.:     3.105 HEAT:  75.36053
 CYCLE:   196 TIME:   0.055 TIME LEFT:  2.00D  GRAD.:     2.761 HEAT:  75.35335
 CYCLE:   197 TIME:   0.070 TIME LEFT:  2.00D  GRAD.:     4.291 HEAT:  75.35079
 CYCLE:   198 TIME:   0.055 TIME LEFT:  2.00D  GRAD.:     8.990 HEAT:  75.35560
 CYCLE:   199 TIME:   0.055 TIME LEFT:  2.00D  GRAD.:     2.000 HEAT:  75.34381
 CYCLE:   200 TIME:   0.062 TIME LEFT:  2.00D  GRAD.:     2.638 HEAT:  75.33986
 CYCLE:   201 TIME:   0.055 TIME LEFT:  2.00D  GRAD.:     1.667 HEAT:  75.33584
 CYCLE:   202 TIME:   0.062 TIME LEFT:  2.00D  GRAD.:     2.898 HEAT:  75.32917
 CYCLE:   203 TIME:   0.047 TIME LEFT:  2.00D  GRAD.:     4.132 HEAT:  75.32608
 CYCLE:   204 TIME:   0.055 TIME LEFT:  2.00D  GRAD.:     2.576 HEAT:  75.32211
 CYCLE:   205 TIME:   0.062 TIME LEFT:  2.00D  GRAD.:     5.098 HEAT:  75.31861
 CYCLE:   206 TIME:   0.062 TIME LEFT:  2.00D  GRAD.:     2.450 HEAT:  75.31211
 CYCLE:   207 TIME:   0.055 TIME LEFT:  2.00D  GRAD.:     3.311 HEAT:  75.31126
 CYCLE:   208 TIME:   0.055 TIME LEFT:  2.00D  GRAD.:     3.915 HEAT:  75.30713
 CYCLE:   209 TIME:   0.062 TIME LEFT:  2.00D  GRAD.:     6.963 HEAT:  75.30246
 CYCLE:   210 TIME:   0.062 TIME LEFT:  2.00D  GRAD.:     9.589 HEAT:  75.30925
 CYCLE:   211 TIME:   0.055 TIME LEFT:  2.00D  GRAD.:    10.936 HEAT:  75.32482
 CYCLE:   212 TIME:   0.055 TIME LEFT:  2.00D  GRAD.:     6.843 HEAT:  75.29426
 CYCLE:   213 TIME:   0.062 TIME LEFT:  2.00D  GRAD.:     9.005 HEAT:  75.28958
 CYCLE:   214 TIME:   0.062 TIME LEFT:  2.00D  GRAD.:     8.578 HEAT:  75.28888
 CYCLE:   215 TIME:   0.055 TIME LEFT:  2.00D  GRAD.:     1.988 HEAT:  75.27445
 CYCLE:   216 TIME:   0.062 TIME LEFT:  2.00D  GRAD.:     4.839 HEAT:  75.28125
 CYCLE:   217 TIME:   0.062 TIME LEFT:  2.00D  GRAD.:     4.025 HEAT:  75.27294
 CYCLE:   218 TIME:   0.055 TIME LEFT:  2.00D  GRAD.:     3.579 HEAT:  75.26914
 CYCLE:   219 TIME:   0.062 TIME LEFT:  2.00D  GRAD.:    10.921 HEAT:  75.31119
 CYCLE:   220 TIME:   0.062 TIME LEFT:  2.00D  GRAD.:     4.577 HEAT:  75.26526
 CYCLE:   221 TIME:   0.055 TIME LEFT:  2.00D  GRAD.:     6.252 HEAT:  75.26272
 CYCLE:   222 TIME:   0.047 TIME LEFT:  2.00D  GRAD.:     2.704 HEAT:  75.25846
 CYCLE:   223 TIME:   0.070 TIME LEFT:  2.00D  GRAD.:     4.489 HEAT:  75.26355
 CYCLE:   224 TIME:   0.055 TIME LEFT:  2.00D  GRAD.:     2.866 HEAT:  75.25751
 CYCLE:   225 TIME:   0.062 TIME LEFT:  2.00D  GRAD.:     6.006 HEAT:  75.25979
 CYCLE:   226 TIME:   0.055 TIME LEFT:  2.00D  GRAD.:     2.167 HEAT:  75.25229
 CYCLE:   227 TIME:   0.062 TIME LEFT:  2.00D  GRAD.:     2.030 HEAT:  75.25176
 CYCLE:   228 TIME:   0.062 TIME LEFT:  2.00D  GRAD.:     1.171 HEAT:  75.24878
 CYCLE:   229 TIME:   0.070 TIME LEFT:  2.00D  GRAD.:     7.723 HEAT:  75.25730
 CYCLE:   230 TIME:   0.062 TIME LEFT:  2.00D  GRAD.:     3.535 HEAT:  75.24766
 CYCLE:   231 TIME:   0.062 TIME LEFT:  2.00D  GRAD.:    16.519 HEAT:  75.28079
 CYCLE:   232 TIME:   0.055 TIME LEFT:  2.00D  GRAD.:     3.013 HEAT:  75.23794
 CYCLE:   233 TIME:   0.062 TIME LEFT:  2.00D  GRAD.:     2.282 HEAT:  75.24404
 CYCLE:   234 TIME:   0.062 TIME LEFT:  2.00D  GRAD.:     2.073 HEAT:  75.23377
 CYCLE:   235 TIME:   0.062 TIME LEFT:  2.00D  GRAD.:     8.125 HEAT:  75.22880
 CYCLE:   236 TIME:   0.055 TIME LEFT:  2.00D  GRAD.:     3.919 HEAT:  75.22310
 CYCLE:   237 TIME:   0.055 TIME LEFT:  2.00D  GRAD.:     3.202 HEAT:  75.21954
 CYCLE:   238 TIME:   0.062 TIME LEFT:  2.00D  GRAD.:     5.606 HEAT:  75.22026
 CYCLE:   239 TIME:   0.062 TIME LEFT:  2.00D  GRAD.:     2.552 HEAT:  75.21184
 CYCLE:   240 TIME:   0.055 TIME LEFT:  2.00D  GRAD.:     2.203 HEAT:  75.21046
 CYCLE:   241 TIME:   0.055 TIME LEFT:  2.00D  GRAD.:     2.186 HEAT:  75.20762
 CYCLE:   242 TIME:   0.062 TIME LEFT:  2.00D  GRAD.:     3.338 HEAT:  75.20477
 CYCLE:   243 TIME:   0.055 TIME LEFT:  2.00D  GRAD.:     3.631 HEAT:  75.19963
 CYCLE:   244 TIME:   0.062 TIME LEFT:  2.00D  GRAD.:     3.941 HEAT:  75.19225
 CYCLE:   245 TIME:   0.055 TIME LEFT:  2.00D  GRAD.:     5.204 HEAT:  75.18807
 CYCLE:   246 TIME:   0.055 TIME LEFT:  2.00D  GRAD.:     1.925 HEAT:  75.18208
 CYCLE:   247 TIME:   0.062 TIME LEFT:  2.00D  GRAD.:     1.445 HEAT:  75.18029
 CYCLE:   248 TIME:   0.062 TIME LEFT:  2.00D  GRAD.:     2.850 HEAT:  75.18295
 CYCLE:   249 TIME:   0.055 TIME LEFT:  2.00D  GRAD.:     4.055 HEAT:  75.17597
 CYCLE:   250 TIME:   0.062 TIME LEFT:  2.00D  GRAD.:     4.027 HEAT:  75.17350
 CYCLE:   251 TIME:   0.055 TIME LEFT:  2.00D  GRAD.:     4.396 HEAT:  75.18093
 CYCLE:   252 TIME:   0.062 TIME LEFT:  2.00D  GRAD.:     1.672 HEAT:  75.17306
 CYCLE:   253 TIME:   0.062 TIME LEFT:  2.00D  GRAD.:     3.053 HEAT:  75.16894
 CYCLE:   254 TIME:   0.055 TIME LEFT:  2.00D  GRAD.:     9.267 HEAT:  75.17349
 CYCLE:   255 TIME:   0.047 TIME LEFT:  2.00D  GRAD.:     2.059 HEAT:  75.16396
 CYCLE:   256 TIME:   0.062 TIME LEFT:  2.00D  GRAD.:     1.168 HEAT:  75.16236
 CYCLE:   257 TIME:   0.055 TIME LEFT:  2.00D  GRAD.:     1.334 HEAT:  75.15876
 CYCLE:   258 TIME:   0.062 TIME LEFT:  2.00D  GRAD.:     2.558 HEAT:  75.15495
 CYCLE:   259 TIME:   0.055 TIME LEFT:  2.00D  GRAD.:     6.122 HEAT:  75.15638
 CYCLE:   260 TIME:   0.055 TIME LEFT:  2.00D  GRAD.:     1.862 HEAT:  75.14992
 CYCLE:   261 TIME:   0.055 TIME LEFT:  2.00D  GRAD.:     1.454 HEAT:  75.14738
 CYCLE:   262 TIME:   0.062 TIME LEFT:  2.00D  GRAD.:     2.836 HEAT:  75.14480
 CYCLE:   263 TIME:   0.055 TIME LEFT:  2.00D  GRAD.:     2.476 HEAT:  75.14123
 CYCLE:   264 TIME:   0.055 TIME LEFT:  2.00D  GRAD.:     2.298 HEAT:  75.13604
 CYCLE:   265 TIME:   0.055 TIME LEFT:  2.00D  GRAD.:     4.166 HEAT:  75.13307
 CYCLE:   266 TIME:   0.055 TIME LEFT:  2.00D  GRAD.:     2.261 HEAT:  75.13014
 CYCLE:   267 TIME:   0.062 TIME LEFT:  2.00D  GRAD.:     2.714 HEAT:  75.13022
 CYCLE:   268 TIME:   0.055 TIME LEFT:  2.00D  GRAD.:    18.587 HEAT:  75.18451
 CYCLE:   269 TIME:   0.055 TIME LEFT:  2.00D  GRAD.:     2.147 HEAT:  75.12541
 CYCLE:   270 TIME:   0.062 TIME LEFT:  2.00D  GRAD.:     2.793 HEAT:  75.12324
 CYCLE:   271 TIME:   0.055 TIME LEFT:  2.00D  GRAD.:     2.429 HEAT:  75.11814
 CYCLE:   272 TIME:   0.055 TIME LEFT:  2.00D  GRAD.:     3.546 HEAT:  75.11632
 CYCLE:   273 TIME:   0.062 TIME LEFT:  2.00D  GRAD.:     2.151 HEAT:  75.11401
 CYCLE:   274 TIME:   0.055 TIME LEFT:  2.00D  GRAD.:     2.680 HEAT:  75.11574
 CYCLE:   275 TIME:   0.062 TIME LEFT:  2.00D  GRAD.:     3.208 HEAT:  75.11136
 CYCLE:   276 TIME:   0.055 TIME LEFT:  2.00D  GRAD.:     2.420 HEAT:  75.11087
 CYCLE:   277 TIME:   0.055 TIME LEFT:  2.00D  GRAD.:     1.530 HEAT:  75.10908
 CYCLE:   278 TIME:   0.062 TIME LEFT:  2.00D  GRAD.:     9.728 HEAT:  75.12131
 CYCLE:   279 TIME:   0.062 TIME LEFT:  2.00D  GRAD.:     2.241 HEAT:  75.10992
 CYCLE:   280 TIME:   0.055 TIME LEFT:  2.00D  GRAD.:    11.675 HEAT:  75.12534
 CYCLE:   281 TIME:   0.062 TIME LEFT:  2.00D  GRAD.:     1.176 HEAT:  75.10536
 CYCLE:   282 TIME:   0.055 TIME LEFT:  2.00D  GRAD.:     1.099 HEAT:  75.10422
 CYCLE:   283 TIME:   0.062 TIME LEFT:  2.00D  GRAD.:    13.825 HEAT:  75.21918
 CYCLE:   284 TIME:   0.062 TIME LEFT:  2.00D  GRAD.:    12.232 HEAT:  75.12733
 CYCLE:   285 TIME:   0.062 TIME LEFT:  2.00D  GRAD.:    63.141 HEAT:  75.61195
 CYCLE:   286 TIME:   0.055 TIME LEFT:  2.00D  GRAD.:    11.173 HEAT:  75.10917
 CYCLE:   287 TIME:   0.062 TIME LEFT:  2.00D  GRAD.:     7.896 HEAT:  75.11688
 CYCLE:   288 TIME:   0.055 TIME LEFT:  2.00D  GRAD.:     1.316 HEAT:  75.09544
 CYCLE:   289 TIME:   0.055 TIME LEFT:  2.00D  GRAD.:     1.374 HEAT:  75.09470
 CYCLE:   290 TIME:   0.062 TIME LEFT:  2.00D  GRAD.:     2.963 HEAT:  75.09332
 CYCLE:   291 TIME:   0.055 TIME LEFT:  2.00D  GRAD.:     2.425 HEAT:  75.09117
 CYCLE:   292 TIME:   0.055 TIME LEFT:  2.00D  GRAD.:     1.640 HEAT:  75.08495
 CYCLE:   293 TIME:   0.055 TIME LEFT:  2.00D  GRAD.:     2.346 HEAT:  75.08280
 CYCLE:   294 TIME:   0.062 TIME LEFT:  2.00D  GRAD.:     2.089 HEAT:  75.08016
 CYCLE:   295 TIME:   0.055 TIME LEFT:  2.00D  GRAD.:     1.864 HEAT:  75.07696
 CYCLE:   296 TIME:   0.062 TIME LEFT:  2.00D  GRAD.:     3.254 HEAT:  75.07501
 CYCLE:   297 TIME:   0.055 TIME LEFT:  2.00D  GRAD.:     1.518 HEAT:  75.07266
 CYCLE:   298 TIME:   0.055 TIME LEFT:  2.00D  GRAD.:     1.539 HEAT:  75.07095
 CYCLE:   299 TIME:   0.055 TIME LEFT:  2.00D  GRAD.:     1.661 HEAT:  75.06902
 CYCLE:   300 TIME:   0.062 TIME LEFT:  2.00D  GRAD.:     4.342 HEAT:  75.06714
 CYCLE:   301 TIME:   0.055 TIME LEFT:  2.00D  GRAD.:     3.175 HEAT:  75.06469
 CYCLE:   302 TIME:   0.055 TIME LEFT:  2.00D  GRAD.:     1.977 HEAT:  75.06274
 CYCLE:   303 TIME:   0.055 TIME LEFT:  2.00D  GRAD.:     1.570 HEAT:  75.06044
 CYCLE:   304 TIME:   0.055 TIME LEFT:  2.00D  GRAD.:     1.630 HEAT:  75.05858
 CYCLE:   305 TIME:   0.062 TIME LEFT:  2.00D  GRAD.:     2.642 HEAT:  75.05690
 CYCLE:   306 TIME:   0.055 TIME LEFT:  2.00D  GRAD.:     4.570 HEAT:  75.05610
 CYCLE:   307 TIME:   0.055 TIME LEFT:  2.00D  GRAD.:     2.472 HEAT:  75.05524
 CYCLE:   308 TIME:   0.062 TIME LEFT:  2.00D  GRAD.:     1.756 HEAT:  75.05503
 CYCLE:   309 TIME:   0.062 TIME LEFT:  2.00D  GRAD.:     5.693 HEAT:  75.05334
 CYCLE:   310 TIME:   0.055 TIME LEFT:  2.00D  GRAD.:     1.396 HEAT:  75.04933
 CYCLE:   311 TIME:   0.055 TIME LEFT:  2.00D  GRAD.:     1.208 HEAT:  75.04768
 CYCLE:   312 TIME:   0.062 TIME LEFT:  2.00D  GRAD.:     2.139 HEAT:  75.04706
 CYCLE:   313 TIME:   0.055 TIME LEFT:  2.00D  GRAD.:     4.251 HEAT:  75.04481
 CYCLE:   314 TIME:   0.055 TIME LEFT:  2.00D  GRAD.:     1.867 HEAT:  75.04172
 CYCLE:   315 TIME:   0.055 TIME LEFT:  2.00D  GRAD.:     1.366 HEAT:  75.04011
 CYCLE:   316 TIME:   0.070 TIME LEFT:  2.00D  GRAD.:     3.122 HEAT:  75.03830
 CYCLE:   317 TIME:   0.062 TIME LEFT:  2.00D  GRAD.:     4.549 HEAT:  75.03802
 CYCLE:   318 TIME:   0.055 TIME LEFT:  2.00D  GRAD.:     1.703 HEAT:  75.03616
 CYCLE:   319 TIME:   0.062 TIME LEFT:  2.00D  GRAD.:     1.255 HEAT:  75.03528
 CYCLE:   320 TIME:   0.055 TIME LEFT:  2.00D  GRAD.:     1.427 HEAT:  75.03423
 CYCLE:   321 TIME:   0.062 TIME LEFT:  2.00D  GRAD.:     1.737 HEAT:  75.03166
 CYCLE:   322 TIME:   0.055 TIME LEFT:  2.00D  GRAD.:     6.900 HEAT:  75.03660
 CYCLE:   323 TIME:   0.055 TIME LEFT:  2.00D  GRAD.:     1.316 HEAT:  75.02960
 CYCLE:   324 TIME:   0.055 TIME LEFT:  2.00D  GRAD.:     0.953 HEAT:  75.02884

 -------------------------------------------------------------------------------
 PM7 XYZ

 Lipophilicity_575 - geometry optimisation


     HERBERTS TEST WAS SATISFIED IN BFGS                      
     SCF FIELD WAS ACHIEVED                                   


                              PM7 CALCULATION
                                                       MOPAC v23.0.3 Linux
                                                       Fri Jul 25 20:09:32 2025




          FINAL HEAT OF FORMATION =         75.02884 KCAL/MOL =     313.92066 KJ/MOL


          COSMO AREA              =        481.22 SQUARE ANGSTROMS
          COSMO VOLUME            =        565.82 CUBIC ANGSTROMS

          GRADIENT NORM           =          0.95274          =       0.12199 PER ATOM
          IONIZATION POTENTIAL    =          8.445869 EV
          HOMO LUMO ENERGIES (EV) =         -8.446 -0.760
          NO. OF FILLED LEVELS    =         89
          MOLECULAR WEIGHT        =        476.5521         POINT GROUP:  C1  

          MOLECULAR DIMENSIONS (Angstroms)

            Atom       Atom       Distance
            H    61    H    44    17.12563
            H    48    H    39    10.26701
            H    49    H    53     9.14713


          SCF CALCULATIONS        =        325

          WALL-CLOCK TIME         =     18.641 SECONDS
          COMPUTATION TIME        =          6 MINUTES AND 11.711 SECONDS




   ATOM   CHEMICAL          X               Y               Z
  NUMBER   SYMBOL      (ANGSTROMS)     (ANGSTROMS)     (ANGSTROMS)

     1       C         -2.63976165  *   3.46308231  *   2.10312665  *
     2       C         -2.68589275  *   3.79911957  *   0.61059396  *
     3       N         -3.05121551  *   2.61199690  *  -0.18237780  *
     4       C         -2.15279435  *   1.57929531  *  -0.27226845  *
     5       C         -2.46908535  *   0.41936122  *  -0.93722620  *
     6       C         -3.74474311  *   0.29133313  *  -1.55523849  *
     7       C         -4.65138405  *   1.30196430  *  -1.47574895  *
     8       C         -6.00386998  *   1.23222961  *  -2.08457126  *
     9       C         -4.34558266  *   2.53449853  *  -0.76521964  *
    10       O         -5.08085892  *   3.49346722  *  -0.63407889  *
    11       C         -1.46792582  *  -0.70601265  *  -0.97192023  *
    12       N         -1.76898584  *  -1.69773355  *  -2.04294085  *
    13       C         -2.02621111  *  -2.86868209  *  -1.49146095  *
    14       N         -2.41300909  *  -3.95629325  *  -2.23749696  *
    15       C         -1.94615962  *  -2.83997400  *  -0.00940066  *
    16       C         -2.14679353  *  -3.75433084  *   1.00679611  *
    17       F         -2.45904983  *  -5.00663499  *   0.72068835  *
    18       C         -2.02643738  *  -3.37998248  *   2.35077932  *
    19       C         -1.70750193  *  -2.06049651  *   2.65708731  *
    20       C         -1.49831357  *  -1.10952104  *   1.64882371  *
    21       C         -1.60790639  *  -1.51010746  *   0.33322645  *
    22       C         -0.07723388  *  -0.16524508  *  -1.23305046  *
    23       C          0.17135908  *   0.42135607  *  -2.47839616  *
    24       C          1.41703974  *   0.97768044  *  -2.75267818  *
    25       C          2.42658861  *   0.94034191  *  -1.79313963  *
    26       C          2.18499784  *   0.33091824  *  -0.56097010  *
    27       C          0.93282526  *  -0.22013454  *  -0.27797548  *
    28       C          3.25506009  *   0.25985319  *   0.44867550  *
    29       C          4.54952945  *  -0.14267962  *   0.08836938  *
    30       C          5.53813913  *  -0.19335916  *   1.07779817  *
    31       C          5.20301647  *   0.15971319  *   2.39145722  *
    32       C          3.88409566  *   0.53921407  *   2.66206429  *
    33       N          2.92662096  *   0.58740471  *   1.71899031  *
    34       C          6.84436055  *  -0.59879716  *   0.75211284  *
    35       C          7.96735213  *  -0.95657635  *   0.46155462  *
    36       C          9.28457621  *  -1.38115922  *   0.11607819  *
    37       H         -1.86292727  *   2.72634227  *   2.33791978  *
    38       H         -3.59896154  *   3.05315031  *   2.44741836  *
    39       H         -2.43919671  *   4.36150767  *   2.69800164  *
    40       H         -3.44054392  *   4.60476536  *   0.42218168  *
    41       H         -1.70593285  *   4.19149683  *   0.25853972  *
    42       H         -1.17252901  *   1.72679485  *   0.20319707  *
    43       H         -3.97345878  *  -0.63094395  *  -2.09856583  *
    44       H         -6.78918112  *   1.27234284  *  -1.31190242  *
    45       H         -6.18572696  *   2.09172528  *  -2.75087530  *
    46       H         -6.15896933  *   0.31778185  *  -2.67072132  *
    47       H         -2.34227228  *  -3.88474797  *  -3.23763311  *
    48       H         -2.32753522  *  -4.87393803  *  -1.85717370  *
    49       H         -2.18461216  *  -4.10958591  *   3.14328341  *
    50       H         -1.61830177  *  -1.75664005  *   3.70144251  *
    51       H         -1.25660828  *  -0.07941829  *   1.90637830  *
    52       H         -0.62005105  *   0.43190619  *  -3.23201294  *
    53       H          1.60277908  *   1.44390156  *  -3.71785491  *
    54       H          3.39552023  *   1.38884977  *  -2.00243223  *
    55       H          0.77266311  *  -0.68591121  *   0.69551379  *
    56       H          4.77698636  *  -0.42095435  *  -0.93743454  *
    57       H          5.94932742  *   0.13513295  *   3.17887239  *
    58       H          3.56632839  *   0.82025742  *   3.67302331  *
    59       H          9.62280176  *  -0.94297661  *  -0.84250484  *
    60       H          9.34622685  *  -2.48104787  *   0.00356454  *
    61       H         10.02954178  *  -1.09475773  *   0.88232466  *

                             CARTESIAN COORDINATES

   1    C       -2.639761649     3.463082312     2.103126652
   2    C       -2.685892751     3.799119570     0.610593960
   3    N       -3.051215506     2.611996898    -0.182377805
   4    C       -2.152794348     1.579295314    -0.272268449
   5    C       -2.469085352     0.419361221    -0.937226204
   6    C       -3.744743112     0.291333131    -1.555238492
   7    C       -4.651384053     1.301964302    -1.475748953
   8    C       -6.003869977     1.232229612    -2.084571262
   9    C       -4.345582657     2.534498533    -0.765219642
  10    O       -5.080858919     3.493467225    -0.634078894
  11    C       -1.467925825    -0.706012648    -0.971920225
  12    N       -1.768985836    -1.697733546    -2.042940853
  13    C       -2.026211109    -2.868682086    -1.491460955
  14    N       -2.413009094    -3.956293245    -2.237496956
  15    C       -1.946159617    -2.839974003    -0.009400657
  16    C       -2.146793533    -3.754330841     1.006796109
  17    F       -2.459049826    -5.006634994     0.720688347
  18    C       -2.026437384    -3.379982484     2.350779321
  19    C       -1.707501932    -2.060496507     2.657087308
  20    C       -1.498313566    -1.109521035     1.648823707
  21    C       -1.607906388    -1.510107459     0.333226453
  22    C       -0.077233881    -0.165245084    -1.233050463
  23    C        0.171359078     0.421356071    -2.478396162
  24    C        1.417039745     0.977680441    -2.752678180
  25    C        2.426588612     0.940341908    -1.793139625
  26    C        2.184997836     0.330918240    -0.560970099
  27    C        0.932825258    -0.220134542    -0.277975479
  28    C        3.255060093     0.259853186     0.448675501
  29    C        4.549529449    -0.142679624     0.088369383
  30    C        5.538139125    -0.193359160     1.077798165
  31    C        5.203016470     0.159713194     2.391457218
  32    C        3.884095657     0.539214074     2.662064290
  33    N        2.926620955     0.587404714     1.718990306
  34    C        6.844360549    -0.598797164     0.752112837
  35    C        7.967352133    -0.956576352     0.461554622
  36    C        9.284576211    -1.381159223     0.116078186
  37    H       -1.862927269     2.726342273     2.337919785
  38    H       -3.598961543     3.053150310     2.447418361
  39    H       -2.439196708     4.361507672     2.698001641
  40    H       -3.440543918     4.604765360     0.422181678
  41    H       -1.705932854     4.191496826     0.258539718
  42    H       -1.172529015     1.726794849     0.203197069
  43    H       -3.973458784    -0.630943949    -2.098565826
  44    H       -6.789181119     1.272342838    -1.311902417
  45    H       -6.185726956     2.091725278    -2.750875303
  46    H       -6.158969328     0.317781848    -2.670721315
  47    H       -2.342272279    -3.884747971    -3.237633105
  48    H       -2.327535224    -4.873938027    -1.857173699
  49    H       -2.184612158    -4.109585914     3.143283412
  50    H       -1.618301767    -1.756640047     3.701442506
  51    H       -1.256608276    -0.079418288     1.906378299
  52    H       -0.620051046     0.431906192    -3.232012941
  53    H        1.602779083     1.443901560    -3.717854910
  54    H        3.395520234     1.388849769    -2.002432233
  55    H        0.772663105    -0.685911210     0.695513786
  56    H        4.776986361    -0.420954350    -0.937434543
  57    H        5.949327417     0.135132945     3.178872392
  58    H        3.566328394     0.820257421     3.673023314
  59    H        9.622801760    -0.942976615    -0.842504835
  60    H        9.346226854    -2.481047873     0.003564541
  61    H       10.029541776    -1.094757729     0.882324655


           Empirical Formula: C30 H25 N4 O F  =    61 atoms



      MOLECULAR POINT GROUP   :   C1  


                  EIGENVALUES  
 -41.55131 -37.33076 -37.13195 -35.87551 -35.07214 -31.06438 -30.75187 -30.07023
 -29.44122 -29.12406 -28.05511 -27.66582 -27.30656 -26.87877 -26.59038 -26.05104
 -25.77493 -25.29034 -25.01430 -24.17093 -23.70690 -22.73049 -22.51786 -22.35648
 -22.22734 -21.47497 -21.04315 -20.58823 -20.51584 -20.26736 -19.59595 -18.63740
 -18.01809 -17.89424 -17.47593 -17.31197 -17.23962 -17.10812 -16.86638 -16.66948
 -16.41588 -16.30066 -16.23091 -15.79563 -15.74990 -15.59353 -15.44712 -15.36230
 -15.23347 -15.07271 -15.03745 -14.90857 -14.84247 -14.76713 -14.54097 -14.41133
 -14.31290 -14.21013 -14.16606 -14.08758 -13.73686 -13.49445 -13.38111 -13.23149
 -13.09363 -13.07265 -12.98842 -12.87887 -12.82841 -12.61242 -12.40651 -12.20927
 -12.14378 -12.09117 -11.93768 -11.73830 -10.80707 -10.71405 -10.54168 -10.37628
 -10.37307 -10.32979 -10.19766 -10.14627  -9.91498  -9.77079  -9.41115  -9.28225
  -8.44587  -0.75998  -0.61944  -0.39529  -0.33659  -0.01840   0.14359   0.39578
   0.71440   1.06182   1.20898   1.56171   1.64748   2.05411   2.18239   2.38166
   2.44110   2.47627   2.61673   2.84046   3.02728   3.35594   3.58495   3.60729
   3.70861   3.77809   3.79619   3.85392   3.93567   4.07258   4.10153   4.13044
   4.21247   4.25860   4.35765   4.44882   4.48468   4.51150   4.60222   4.61835
   4.82905   4.93945   4.97533   4.99510   5.01437   5.02321   5.04048   5.07476
   5.10120   5.18931   5.23785   5.24837   5.25534   5.35455   5.39617   5.43467
   5.45957   5.48436   5.62333   5.70511   5.71510   5.75508   5.78029   5.80419
   5.82683   5.84534   5.86093   5.94253   6.02113   6.02741   6.08673   6.14823
   6.22559   6.22909   6.31073   6.32631   6.46140   6.60696   6.68502   6.75269
   7.17769


              NET ATOMIC CHARGES AND DIPOLE CONTRIBUTIONS

  ATOM NO.   TYPE          CHARGE      No. of ELECS.   s-Pop       p-Pop       
    1          C          -0.462303        4.4623     1.05719     3.40512
    2          C          -0.069292        4.0693     1.06671     3.00258
    3          N          -0.384405        5.3844     1.56255     3.82186
    4          C           0.067939        3.9321     1.08876     2.84330
    5          C          -0.199024        4.1990     1.05392     3.14510
    6          C          -0.039259        4.0393     1.08952     2.94974
    7          C          -0.154423        4.1544     1.06702     3.08741
    8          C          -0.417860        4.4179     1.04438     3.37348
    9          C           0.561323        3.4387     1.08389     2.35479
   10          O          -0.538596        6.5386     1.88067     4.65793
   11          C           0.209401        3.7906     1.05707     2.73353
   12          N          -0.529071        5.5291     1.79188     3.73719
   13          C           0.393382        3.6066     1.05435     2.55226
   14          N          -0.593565        5.5936     1.53392     4.05965
   15          C          -0.203642        4.2036     1.07160     3.13204
   16          C           0.238626        3.7614     1.09268     2.66869
   17          F          -0.171414        7.1714     1.96575     5.20567
   18          C          -0.242477        4.2425     1.08077     3.16171
   19          C          -0.061091        4.0611     1.08789     2.97321
   20          C          -0.189828        4.1898     1.07814     3.11169
   21          C           0.022896        3.9771     1.09802     2.87908
   22          C          -0.028393        4.0284     1.07174     2.95665
   23          C          -0.099005        4.0990     1.09009     3.00892
   24          C          -0.156989        4.1570     1.08137     3.07562
   25          C          -0.140436        4.1404     1.08407     3.05636
   26          C          -0.029134        4.0291     1.05897     2.97016
   27          C          -0.136718        4.1367     1.08704     3.04967
   28          C           0.190203        3.8098     1.07240     2.73739
   29          C          -0.254019        4.2540     1.08930     3.16472
   30          C           0.127149        3.8729     1.04489     2.82796
   31          C          -0.254841        4.2548     1.08724     3.16760
   32          C           0.062347        3.9377     1.09523     2.84242
   33          N          -0.388569        5.3886     1.74330     3.64527
   34          C          -0.175035        4.1750     1.08066     3.09437
   35          C           0.013167        3.9868     1.09838     2.88846
   36          C          -0.409576        4.4096     1.03363     3.37595
   37          H           0.152539        0.8475     0.84746
   38          H           0.161426        0.8386     0.83857
   39          H           0.151867        0.8481     0.84813
   40          H           0.179648        0.8204     0.82035
   41          H           0.143370        0.8566     0.85663
   42          H           0.178499        0.8215     0.82150
   43          H           0.181108        0.8189     0.81889
   44          H           0.163466        0.8365     0.83653
   45          H           0.165424        0.8346     0.83458
   46          H           0.151104        0.8489     0.84890
   47          H           0.311479        0.6885     0.68852
   48          H           0.304876        0.6951     0.69512
   49          H           0.175807        0.8242     0.82419
   50          H           0.157839        0.8422     0.84216
   51          H           0.172543        0.8275     0.82746
   52          H           0.175240        0.8248     0.82476
   53          H           0.150703        0.8493     0.84930
   54          H           0.152115        0.8479     0.84788
   55          H           0.173339        0.8267     0.82666
   56          H           0.178568        0.8214     0.82143
   57          H           0.170918        0.8291     0.82908
   58          H           0.167852        0.8321     0.83215
   59          H           0.174238        0.8258     0.82576
   60          H           0.175569        0.8244     0.82443
   61          H           0.172995        0.8270     0.82700
 DIPOLE           X         Y         Z       TOTAL
 POINT-CHG.     5.803    -2.157     1.758     6.436
 HYBRID         0.976    -1.184     0.319     1.567
 SUM            6.779    -3.341     2.078     7.837


          ATOMIC ORBITAL ELECTRON POPULATIONS

     Atom    s        px        py        pz   
    1  C   1.05719   1.19145   1.17563   1.03803
    2  C   1.06671   1.14542   0.92376   0.93340
    3  N   1.56255   1.20296   1.19128   1.42762
    4  C   1.08876   0.98051   0.88957   0.97323
    5  C   1.05392   1.02163   0.99543   1.12804
    6  C   1.08952   0.95159   1.04863   0.94952
    7  C   1.06702   1.01656   0.99260   1.07824
    8  C   1.04438   1.03901   1.17985   1.15463
    9  C   1.08389   0.73561   0.85430   0.76488
   10  O   1.88067   1.57709   1.43755   1.64329
   11  C   1.05707   0.95838   0.92064   0.85451
   12  N   1.79188   1.32633   1.07921   1.33165
   13  C   1.05435   0.84956   0.84498   0.85773
   14  N   1.53392   1.71490   1.15115   1.19360
   15  C   1.07160   1.12469   1.01610   0.99125
   16  C   1.09268   0.92063   0.79181   0.95626
   17  F   1.96575   1.92318   1.32988   1.95261
   18  C   1.08077   1.07998   1.05162   1.03011
   19  C   1.08789   0.93068   0.96951   1.07301
   20  C   1.07814   1.04701   1.08427   0.98042
   21  C   1.09802   0.92492   0.96178   0.99239
   22  C   1.07174   0.95894   1.00207   0.99564
   23  C   1.09009   1.03318   0.95110   1.02464
   24  C   1.08137   0.99040   1.02518   1.06004
   25  C   1.08407   1.06488   1.00903   0.98245
   26  C   1.05897   0.97589   1.02403   0.97023
   27  C   1.08704   0.97456   1.00860   1.06651
   28  C   1.07240   0.94542   0.89513   0.89685
   29  C   1.08930   0.99839   1.07328   1.09305
   30  C   1.04489   0.93970   0.91838   0.96988
   31  C   1.08724   1.05165   1.06816   1.04778
   32  C   1.09523   0.91182   0.91774   1.01287
   33  N   1.74330   1.38205   1.18335   1.07987
   34  C   1.08066   0.98643   1.06037   1.04758
   35  C   1.09838   0.96259   0.94649   0.97937
   36  C   1.03363   1.03060   1.16991   1.17544
   37  H   0.84746
   38  H   0.83857
   39  H   0.84813
   40  H   0.82035
   41  H   0.85663
   42  H   0.82150
   43  H   0.81889
   44  H   0.83653
   45  H   0.83458
   46  H   0.84890
   47  H   0.68852
   48  H   0.69512
   49  H   0.82419
   50  H   0.84216
   51  H   0.82746
   52  H   0.82476
   53  H   0.84930
   54  H   0.84788
   55  H   0.82666
   56  H   0.82143
   57  H   0.82908
   58  H   0.83215
   59  H   0.82576
   60  H   0.82443
   61  H   0.82700

 **********************
 *                    *
 * JOB ENDED NORMALLY *
 *                    *
 **********************



 TOTAL JOB TIME:            18.64 SECONDS

 == MOPAC DONE ==
