 *******************************************************************************
 **                                                                           **
 **                              MOPAC v23.0.3                                **
 **                                                                           **
 *******************************************************************************
 **          Digital Object Identifier (DOI): 10.5281/zenodo.6511958          **
 **    Visit the DOI location for information on how to cite this program.    **
 *******************************************************************************

                              PM7 CALCULATION RESULTS

 *******************************************************************************
 *  CALCULATION DONE:                                Fri Jul 25 17:51:41 2025  *
 *  PM7        - The PM7 Hamiltonian to be used
 *  XYZ        - CARTESIAN COORDINATE SYSTEM TO BE USED
 *  T=         - A TIME OF 172800.0 SECONDS REQUESTED
 *  DUMP=N     - RESTART FILE WRITTEN EVERY 7200.0 SECONDS REQUESTED
 *******************************************************************************
PM7 XYZ

 Lipophilicity_1675 - geometry optimisation
   ATOM   CHEMICAL          X               Y               Z
  NUMBER   SYMBOL      (ANGSTROMS)     (ANGSTROMS)     (ANGSTROMS)

     1       C         -5.70923400  *   3.46903500  *  -0.90543500  *
     2       C         -4.98062200  *   2.78707700  *   0.25945100  *
     3       C         -5.98644100  *   2.29788600  *   1.31972900  *
     4       N         -4.05775400  *   1.73065100  *  -0.23578100  *
     5       C         -4.71967400  *   0.57281000  *  -0.88848400  *
     6       C         -3.72767900  *  -0.57193400  *  -1.19284400  *
     7       C         -2.28451400  *  -0.06036600  *  -1.24034900  *
     8       C         -1.87301800  *   0.60949100  *   0.09597100  *
     9       C         -1.18181800  *  -0.36655500  *   1.08241400  *
    10       N          0.10542200  *  -0.88158600  *   0.55352200  *
    11       C          1.19726200  *  -0.03944800  *   0.56899900  *
    12       O          1.08949000  *   1.13292400  *   1.02937900  *
    13       C          2.44396600  *  -0.47202000  *   0.08712100  *
    14       C          3.57907100  *   0.36199200  *   0.07562300  *
    15       C          4.81170700  *  -0.11380300  *  -0.41011100  *
    16       C          4.89441300  *  -1.43553600  *  -0.88316200  *
    17       C          3.77049000  *  -2.26426200  *  -0.87077000  *
    18       C          2.54964700  *  -1.78422400  *  -0.38933500  *
    19       N          1.46525400  *  -2.58956800  *  -0.37709200  *
    20       C          0.24811600  *  -2.17003600  *   0.06403000  *
    21       C         -0.87678300  *  -3.19914900  *   0.07540700  *
    22       C         -0.88127300  *  -3.95263700  *   1.40932700  *
    23       C         -0.75393300  *  -4.18837000  *  -1.09377200  *
    24       C          6.00830700  *   0.76607100  *  -0.42208300  *
    25       C          6.28123300  *   1.61822000  *   0.66488000  *
    26       C          7.40862800  *   2.44519400  *   0.65099900  *
    27       C          8.27449900  *   2.43218600  *  -0.44515900  *
    28       F          9.36674800  *   3.23534100  *  -0.45634200  *
    29       C          8.01440400  *   1.59100100  *  -1.52970200  *
    30       C          6.88891200  *   0.76135700  *  -1.52049700  *
    31       C         -3.08375100  *   1.28998800  *   0.78212100  *
    32       H         -6.46535100  *   2.79312100  *  -1.35731300  *
    33       H         -6.23067300  *   4.38155400  *  -0.54496000  *
    34       H         -4.97863900  *   3.76964200  *  -1.68628100  *
    35       H         -4.37015100  *   3.58676700  *   0.73656800  *
    36       H         -6.50588200  *   3.17225600  *   1.76674600  *
    37       H         -6.76251100  *   1.64030800  *   0.87693400  *
    38       H         -5.47215900  *   1.75992800  *   2.14138600  *
    39       H         -5.53420000  *   0.16085900  *  -0.25793100  *
    40       H         -5.16232100  *   0.90575900  *  -1.85101600  *
    41       H         -3.98676600  *  -1.04920400  *  -2.16277400  *
    42       H         -3.81095900  *  -1.35056900  *  -0.40396600  *
    43       H         -2.21380900  *   0.69299000  *  -2.05636700  *
    44       H         -1.59590900  *  -0.88087800  *  -1.52270000  *
    45       H         -1.14815300  *   1.41280800  *  -0.15971400  *
    46       H         -0.98700600  *   0.17269700  *   2.03655500  *
    47       H         -1.87801700  *  -1.17047600  *   1.38346100  *
    48       H          3.50300600  *   1.38441300  *   0.42561600  *
    49       H          5.83338200  *  -1.83431100  *  -1.24609700  *
    50       H          3.85164700  *  -3.28147000  *  -1.23401500  *
    51       H         -1.86126100  *  -2.71661600  *  -0.06300000  *
    52       H          0.07018200  *  -4.51061500  *   1.54610300  *
    53       H         -0.99988100  *  -3.24389300  *   2.25581500  *
    54       H         -1.72692400  *  -4.67245600  *   1.43982100  *
    55       H         -1.63422900  *  -4.86615600  *  -1.11357500  *
    56       H         -0.72152600  *  -3.63602500  *  -2.05748200  *
    57       H          0.16381100  *  -4.80831100  *  -1.00099000  *
    58       H          5.63333900  *   1.63211900  *   1.53231200  *
    59       H          7.61184600  *   3.09390600  *   1.49336400  *
    60       H          8.68309700  *   1.58310200  *  -2.38087200  *
    61       H          6.69782900  *   0.12972500  *  -2.37893700  *
    62       H         -2.70865200  *   2.15304700  *   1.37605700  *
    63       H         -3.57423500  *   0.58425000  *   1.49051300  *



          CARTESIAN COORDINATES 

    NO.       ATOM           X           Y           Z

     1         C         -5.7092      3.4690     -0.9054
     2         C         -4.9806      2.7871      0.2595
     3         C         -5.9864      2.2979      1.3197
     4         N         -4.0578      1.7307     -0.2358
     5         C         -4.7197      0.5728     -0.8885
     6         C         -3.7277     -0.5719     -1.1928
     7         C         -2.2845     -0.0604     -1.2403
     8         C         -1.8730      0.6095      0.0960
     9         C         -1.1818     -0.3666      1.0824
    10         N          0.1054     -0.8816      0.5535
    11         C          1.1973     -0.0394      0.5690
    12         O          1.0895      1.1329      1.0294
    13         C          2.4440     -0.4720      0.0871
    14         C          3.5791      0.3620      0.0756
    15         C          4.8117     -0.1138     -0.4101
    16         C          4.8944     -1.4355     -0.8832
    17         C          3.7705     -2.2643     -0.8708
    18         C          2.5496     -1.7842     -0.3893
    19         N          1.4653     -2.5896     -0.3771
    20         C          0.2481     -2.1700      0.0640
    21         C         -0.8768     -3.1991      0.0754
    22         C         -0.8813     -3.9526      1.4093
    23         C         -0.7539     -4.1884     -1.0938
    24         C          6.0083      0.7661     -0.4221
    25         C          6.2812      1.6182      0.6649
    26         C          7.4086      2.4452      0.6510
    27         C          8.2745      2.4322     -0.4452
    28         F          9.3667      3.2353     -0.4563
    29         C          8.0144      1.5910     -1.5297
    30         C          6.8889      0.7614     -1.5205
    31         C         -3.0838      1.2900      0.7821
    32         H         -6.4654      2.7931     -1.3573
    33         H         -6.2307      4.3816     -0.5450
    34         H         -4.9786      3.7696     -1.6863
    35         H         -4.3702      3.5868      0.7366
    36         H         -6.5059      3.1723      1.7667
    37         H         -6.7625      1.6403      0.8769
    38         H         -5.4722      1.7599      2.1414
    39         H         -5.5342      0.1609     -0.2579
    40         H         -5.1623      0.9058     -1.8510
    41         H         -3.9868     -1.0492     -2.1628
    42         H         -3.8110     -1.3506     -0.4040
    43         H         -2.2138      0.6930     -2.0564
    44         H         -1.5959     -0.8809     -1.5227
    45         H         -1.1482      1.4128     -0.1597
    46         H         -0.9870      0.1727      2.0366
    47         H         -1.8780     -1.1705      1.3835
    48         H          3.5030      1.3844      0.4256
    49         H          5.8334     -1.8343     -1.2461
    50         H          3.8516     -3.2815     -1.2340
    51         H         -1.8613     -2.7166     -0.0630
    52         H          0.0702     -4.5106      1.5461
    53         H         -0.9999     -3.2439      2.2558
    54         H         -1.7269     -4.6725      1.4398
    55         H         -1.6342     -4.8662     -1.1136
    56         H         -0.7215     -3.6360     -2.0575
    57         H          0.1638     -4.8083     -1.0010
    58         H          5.6333      1.6321      1.5323
    59         H          7.6118      3.0939      1.4934
    60         H          8.6831      1.5831     -2.3809
    61         H          6.6978      0.1297     -2.3789
    62         H         -2.7087      2.1530      1.3761
    63         H         -3.5742      0.5842      1.4905

 General Reference for PM7:
 "Optimization of Parameters for Semiempirical Methods VI: More Modifications to the 
 NDDO Approximations and Re-optimization of Parameters", J. J. P. Stewart, J. Mol. Mod., 1:32, 19 (2013)
 https://link.springer.com/article/10.1007/s00894-012-1667-x

           Empirical Formula: C26 H32 N3 O F  =    63 atoms



      MOLECULAR POINT GROUP   :   C1  


      RHF CALCULATION, NO. OF DOUBLY OCCUPIED LEVELS = 82


          Geometry optimization using L-BFGS
 CYCLE:     1 TIME:   0.094 TIME LEFT:  2.00D  GRAD.:   217.447 HEAT: -45.90995
 CYCLE:     2 TIME:   0.051 TIME LEFT:  2.00D  GRAD.:   211.915 HEAT: -46.37686
 CYCLE:     3 TIME:   0.055 TIME LEFT:  2.00D  GRAD.:    61.873 HEAT: -56.05619
 CYCLE:     4 TIME:   0.059 TIME LEFT:  2.00D  GRAD.:   212.145 HEAT: -46.38400
 CYCLE:     5 TIME:   0.059 TIME LEFT:  2.00D  GRAD.:    62.058 HEAT: -56.05391
 CYCLE:     6 TIME:   0.051 TIME LEFT:  2.00D  GRAD.:    40.471 HEAT: -56.96032
 CYCLE:     7 TIME:   0.051 TIME LEFT:  2.00D  GRAD.:    28.345 HEAT: -58.27757
 CYCLE:     8 TIME:   0.055 TIME LEFT:  2.00D  GRAD.:    30.495 HEAT: -58.87869
 CYCLE:     9 TIME:   0.051 TIME LEFT:  2.00D  GRAD.:    25.931 HEAT: -59.28374
 CYCLE:    10 TIME:   0.051 TIME LEFT:  2.00D  GRAD.:    14.777 HEAT: -59.52799
 CYCLE:    11 TIME:   0.051 TIME LEFT:  2.00D  GRAD.:    13.161 HEAT: -59.74714
 CYCLE:    12 TIME:   0.051 TIME LEFT:  2.00D  GRAD.:    11.918 HEAT: -59.90105
 CYCLE:    13 TIME:   0.051 TIME LEFT:  2.00D  GRAD.:    30.693 HEAT: -59.93992
 CYCLE:    14 TIME:   0.047 TIME LEFT:  2.00D  GRAD.:     8.865 HEAT: -60.12850
 CYCLE:    15 TIME:   0.051 TIME LEFT:  2.00D  GRAD.:     7.365 HEAT: -60.17534
 CYCLE:    16 TIME:   0.051 TIME LEFT:  2.00D  GRAD.:     8.380 HEAT: -60.26586
 CYCLE:    17 TIME:   0.051 TIME LEFT:  2.00D  GRAD.:    17.146 HEAT: -60.34309
 CYCLE:    18 TIME:   0.047 TIME LEFT:  2.00D  GRAD.:     8.245 HEAT: -60.43610
 CYCLE:    19 TIME:   0.051 TIME LEFT:  2.00D  GRAD.:     5.768 HEAT: -60.49102
 CYCLE:    20 TIME:   0.055 TIME LEFT:  2.00D  GRAD.:     7.528 HEAT: -60.53075
 CYCLE:    21 TIME:   0.051 TIME LEFT:  2.00D  GRAD.:     8.919 HEAT: -60.55675
 CYCLE:    22 TIME:   0.051 TIME LEFT:  2.00D  GRAD.:     4.934 HEAT: -60.58115
 CYCLE:    23 TIME:   0.051 TIME LEFT:  2.00D  GRAD.:     4.659 HEAT: -60.60671
 CYCLE:    24 TIME:   0.047 TIME LEFT:  2.00D  GRAD.:     6.141 HEAT: -60.62434
 CYCLE:    25 TIME:   0.051 TIME LEFT:  2.00D  GRAD.:     6.099 HEAT: -60.65142
 CYCLE:    26 TIME:   0.051 TIME LEFT:  2.00D  GRAD.:     4.308 HEAT: -60.67289
 CYCLE:    27 TIME:   0.051 TIME LEFT:  2.00D  GRAD.:     4.084 HEAT: -60.69015
 CYCLE:    28 TIME:   0.051 TIME LEFT:  2.00D  GRAD.:     4.913 HEAT: -60.70935
 CYCLE:    29 TIME:   0.047 TIME LEFT:  2.00D  GRAD.:     5.825 HEAT: -60.73027
 CYCLE:    30 TIME:   0.051 TIME LEFT:  2.00D  GRAD.:     4.283 HEAT: -60.74691
 CYCLE:    31 TIME:   0.051 TIME LEFT:  2.00D  GRAD.:     3.290 HEAT: -60.75960
 CYCLE:    32 TIME:   0.051 TIME LEFT:  2.00D  GRAD.:     3.386 HEAT: -60.77154
 CYCLE:    33 TIME:   0.051 TIME LEFT:  2.00D  GRAD.:     6.919 HEAT: -60.77843
 CYCLE:    34 TIME:   0.047 TIME LEFT:  2.00D  GRAD.:     2.971 HEAT: -60.79038
 CYCLE:    35 TIME:   0.051 TIME LEFT:  2.00D  GRAD.:     2.676 HEAT: -60.79702
 CYCLE:    36 TIME:   0.051 TIME LEFT:  2.00D  GRAD.:     3.148 HEAT: -60.80564
 CYCLE:    37 TIME:   0.055 TIME LEFT:  2.00D  GRAD.:     8.447 HEAT: -60.81280
 CYCLE:    38 TIME:   0.055 TIME LEFT:  2.00D  GRAD.:     3.340 HEAT: -60.82641
 CYCLE:    39 TIME:   0.051 TIME LEFT:  2.00D  GRAD.:     2.422 HEAT: -60.83271
 CYCLE:    40 TIME:   0.051 TIME LEFT:  2.00D  GRAD.:     3.250 HEAT: -60.83945
 CYCLE:    41 TIME:   0.051 TIME LEFT:  2.00D  GRAD.:     5.460 HEAT: -60.84759
 CYCLE:    42 TIME:   0.047 TIME LEFT:  2.00D  GRAD.:     3.822 HEAT: -60.85865
 CYCLE:    43 TIME:   0.051 TIME LEFT:  2.00D  GRAD.:     3.086 HEAT: -60.87305
 CYCLE:    44 TIME:   0.051 TIME LEFT:  2.00D  GRAD.:     4.352 HEAT: -60.88530
 CYCLE:    45 TIME:   0.051 TIME LEFT:  2.00D  GRAD.:     4.788 HEAT: -60.89563
 CYCLE:    46 TIME:   0.051 TIME LEFT:  2.00D  GRAD.:     3.233 HEAT: -60.90723
 CYCLE:    47 TIME:   0.047 TIME LEFT:  2.00D  GRAD.:     3.290 HEAT: -60.92119
 CYCLE:    48 TIME:   0.051 TIME LEFT:  2.00D  GRAD.:     5.065 HEAT: -60.92850
 CYCLE:    49 TIME:   0.051 TIME LEFT:  2.00D  GRAD.:     3.581 HEAT: -60.93725
 CYCLE:    50 TIME:   0.055 TIME LEFT:  2.00D  GRAD.:     2.963 HEAT: -60.94754
 CYCLE:    51 TIME:   0.051 TIME LEFT:  2.00D  GRAD.:     5.301 HEAT: -60.95175
 CYCLE:    52 TIME:   0.047 TIME LEFT:  2.00D  GRAD.:     2.825 HEAT: -60.95907
 CYCLE:    53 TIME:   0.051 TIME LEFT:  2.00D  GRAD.:     2.005 HEAT: -60.96494
 CYCLE:    54 TIME:   0.051 TIME LEFT:  2.00D  GRAD.:     2.410 HEAT: -60.96999
 CYCLE:    55 TIME:   0.059 TIME LEFT:  2.00D  GRAD.:     5.697 HEAT: -60.97518
 CYCLE:    56 TIME:   0.051 TIME LEFT:  2.00D  GRAD.:     4.339 HEAT: -60.98116
 CYCLE:    57 TIME:   0.051 TIME LEFT:  2.00D  GRAD.:     2.438 HEAT: -60.98571
 CYCLE:    58 TIME:   0.051 TIME LEFT:  2.00D  GRAD.:     1.753 HEAT: -60.99034
 CYCLE:    59 TIME:   0.055 TIME LEFT:  2.00D  GRAD.:     2.788 HEAT: -60.99630
 CYCLE:    60 TIME:   0.055 TIME LEFT:  2.00D  GRAD.:     3.981 HEAT: -61.00281
 CYCLE:    61 TIME:   0.051 TIME LEFT:  2.00D  GRAD.:     3.255 HEAT: -61.00986
 CYCLE:    62 TIME:   0.051 TIME LEFT:  2.00D  GRAD.:     2.534 HEAT: -61.01503
 CYCLE:    63 TIME:   0.051 TIME LEFT:  2.00D  GRAD.:     5.223 HEAT: -61.02193
 CYCLE:    64 TIME:   0.051 TIME LEFT:  2.00D  GRAD.:     2.940 HEAT: -61.02982
 CYCLE:    65 TIME:   0.051 TIME LEFT:  2.00D  GRAD.:     2.111 HEAT: -61.03460
 CYCLE:    66 TIME:   0.055 TIME LEFT:  2.00D  GRAD.:     2.789 HEAT: -61.04254
 CYCLE:    67 TIME:   0.051 TIME LEFT:  2.00D  GRAD.:     3.760 HEAT: -61.04904
 CYCLE:    68 TIME:   0.055 TIME LEFT:  2.00D  GRAD.:     3.356 HEAT: -61.05704
 CYCLE:    69 TIME:   0.051 TIME LEFT:  2.00D  GRAD.:     2.931 HEAT: -61.06474
 CYCLE:    70 TIME:   0.055 TIME LEFT:  2.00D  GRAD.:     3.542 HEAT: -61.07231
 CYCLE:    71 TIME:   0.051 TIME LEFT:  2.00D  GRAD.:     2.945 HEAT: -61.07959
 CYCLE:    72 TIME:   0.051 TIME LEFT:  2.00D  GRAD.:     2.952 HEAT: -61.08605
 CYCLE:    73 TIME:   0.055 TIME LEFT:  2.00D  GRAD.:     3.863 HEAT: -61.09388
 CYCLE:    74 TIME:   0.051 TIME LEFT:  2.00D  GRAD.:     2.263 HEAT: -61.09814
 CYCLE:    75 TIME:   0.051 TIME LEFT:  2.00D  GRAD.:     1.840 HEAT: -61.10157
 CYCLE:    76 TIME:   0.055 TIME LEFT:  2.00D  GRAD.:     2.542 HEAT: -61.10557
 CYCLE:    77 TIME:   0.055 TIME LEFT:  2.00D  GRAD.:     3.223 HEAT: -61.10959
 CYCLE:    78 TIME:   0.051 TIME LEFT:  2.00D  GRAD.:     2.319 HEAT: -61.11396
 CYCLE:    79 TIME:   0.051 TIME LEFT:  2.00D  GRAD.:     1.910 HEAT: -61.11846
 CYCLE:    80 TIME:   0.047 TIME LEFT:  2.00D  GRAD.:     2.109 HEAT: -61.12196
 CYCLE:    81 TIME:   0.055 TIME LEFT:  2.00D  GRAD.:     2.580 HEAT: -61.12561
 CYCLE:    82 TIME:   0.055 TIME LEFT:  2.00D  GRAD.:     2.132 HEAT: -61.12874
 CYCLE:    83 TIME:   0.059 TIME LEFT:  2.00D  GRAD.:     2.391 HEAT: -61.13069
 CYCLE:    84 TIME:   0.055 TIME LEFT:  2.00D  GRAD.:     1.864 HEAT: -61.13345
 CYCLE:    85 TIME:   0.051 TIME LEFT:  2.00D  GRAD.:     1.844 HEAT: -61.13708
 CYCLE:    86 TIME:   0.051 TIME LEFT:  2.00D  GRAD.:     4.032 HEAT: -61.13971
 CYCLE:    87 TIME:   0.051 TIME LEFT:  2.00D  GRAD.:     2.036 HEAT: -61.14310
 CYCLE:    88 TIME:   0.055 TIME LEFT:  2.00D  GRAD.:     1.736 HEAT: -61.14589
 CYCLE:    89 TIME:   0.051 TIME LEFT:  2.00D  GRAD.:     2.263 HEAT: -61.14866
 CYCLE:    90 TIME:   0.055 TIME LEFT:  2.00D  GRAD.:     3.532 HEAT: -61.15118
 CYCLE:    91 TIME:   0.051 TIME LEFT:  2.00D  GRAD.:     2.003 HEAT: -61.15578
 CYCLE:    92 TIME:   0.051 TIME LEFT:  2.00D  GRAD.:     1.924 HEAT: -61.16040
 CYCLE:    93 TIME:   0.047 TIME LEFT:  2.00D  GRAD.:     2.287 HEAT: -61.16505
 CYCLE:    94 TIME:   0.055 TIME LEFT:  2.00D  GRAD.:     4.119 HEAT: -61.16830
 CYCLE:    95 TIME:   0.051 TIME LEFT:  2.00D  GRAD.:     2.522 HEAT: -61.17244
 CYCLE:    96 TIME:   0.055 TIME LEFT:  2.00D  GRAD.:     2.048 HEAT: -61.17347
 CYCLE:    97 TIME:   0.055 TIME LEFT:  2.00D  GRAD.:     7.917 HEAT: -61.16736
 CYCLE:    98 TIME:   0.051 TIME LEFT:  2.00D  GRAD.:     1.936 HEAT: -61.17973
 CYCLE:    99 TIME:   0.055 TIME LEFT:  2.00D  GRAD.:     1.519 HEAT: -61.18165
 CYCLE:   100 TIME:   0.055 TIME LEFT:  2.00D  GRAD.:     1.351 HEAT: -61.18322
 CYCLE:   101 TIME:   0.055 TIME LEFT:  2.00D  GRAD.:     4.874 HEAT: -61.18529
 CYCLE:   102 TIME:   0.051 TIME LEFT:  2.00D  GRAD.:     2.211 HEAT: -61.19035
 CYCLE:   103 TIME:   0.051 TIME LEFT:  2.00D  GRAD.:     1.406 HEAT: -61.19221
 CYCLE:   104 TIME:   0.059 TIME LEFT:  2.00D  GRAD.:     1.566 HEAT: -61.19519
 CYCLE:   105 TIME:   0.051 TIME LEFT:  2.00D  GRAD.:     2.850 HEAT: -61.19707
 CYCLE:   106 TIME:   0.094 TIME LEFT:  2.00D  GRAD.:     1.988 HEAT: -61.19912
 CYCLE:   107 TIME:   0.059 TIME LEFT:  2.00D  GRAD.:     1.917 HEAT: -61.20058
 CYCLE:   108 TIME:   0.051 TIME LEFT:  2.00D  GRAD.:     2.802 HEAT: -61.20393
 CYCLE:   109 TIME:   0.051 TIME LEFT:  2.00D  GRAD.:     1.666 HEAT: -61.20639
 CYCLE:   110 TIME:   0.055 TIME LEFT:  2.00D  GRAD.:     1.254 HEAT: -61.20816
 CYCLE:   111 TIME:   0.051 TIME LEFT:  2.00D  GRAD.:     1.778 HEAT: -61.20996
 CYCLE:   112 TIME:   0.051 TIME LEFT:  2.00D  GRAD.:     1.756 HEAT: -61.21310
 CYCLE:   113 TIME:   0.059 TIME LEFT:  2.00D  GRAD.:     2.479 HEAT: -61.21485
 CYCLE:   114 TIME:   0.055 TIME LEFT:  2.00D  GRAD.:     4.102 HEAT: -61.21704
 CYCLE:   115 TIME:   0.051 TIME LEFT:  2.00D  GRAD.:     1.898 HEAT: -61.22138
 CYCLE:   116 TIME:   0.055 TIME LEFT:  2.00D  GRAD.:     1.409 HEAT: -61.22402
 CYCLE:   117 TIME:   0.051 TIME LEFT:  2.00D  GRAD.:     1.455 HEAT: -61.22613
 CYCLE:   118 TIME:   0.059 TIME LEFT:  2.00D  GRAD.:     2.780 HEAT: -61.22806
 CYCLE:   119 TIME:   0.051 TIME LEFT:  2.00D  GRAD.:     4.248 HEAT: -61.22900
 CYCLE:   120 TIME:   0.051 TIME LEFT:  2.00D  GRAD.:     1.357 HEAT: -61.23242
 CYCLE:   121 TIME:   0.059 TIME LEFT:  2.00D  GRAD.:     0.944 HEAT: -61.23329

 -------------------------------------------------------------------------------
 PM7 XYZ

 Lipophilicity_1675 - geometry optimisation


     HERBERTS TEST WAS SATISFIED IN BFGS                      
     SCF FIELD WAS ACHIEVED                                   


                              PM7 CALCULATION
                                                       MOPAC v23.0.3 Linux
                                                       Fri Jul 25 17:51:47 2025




          FINAL HEAT OF FORMATION =        -61.23329 KCAL/MOL =    -256.20007 KJ/MOL


          COSMO AREA              =        445.10 SQUARE ANGSTROMS
          COSMO VOLUME            =        529.70 CUBIC ANGSTROMS

          GRADIENT NORM           =          0.94418          =       0.11896 PER ATOM
          IONIZATION POTENTIAL    =          8.612006 EV
          HOMO LUMO ENERGIES (EV) =         -8.612 -0.750
          NO. OF FILLED LEVELS    =         82
          MOLECULAR WEIGHT        =        421.5567         POINT GROUP:  C1  

          MOLECULAR DIMENSIONS (Angstroms)

            Atom       Atom       Distance
            H    36    F    28    16.01373
            H    54    H    33     9.31758
            H    56    H    59     6.39337


          SCF CALCULATIONS        =        122

          WALL-CLOCK TIME         =      6.426 SECONDS
          COMPUTATION TIME        =          2 MINUTES AND 8.119 SECONDS




   ATOM   CHEMICAL          X               Y               Z
  NUMBER   SYMBOL      (ANGSTROMS)     (ANGSTROMS)     (ANGSTROMS)

     1       C         -5.76855827  *   3.37321775  *  -0.90600889  *
     2       C         -4.94913954  *   2.75874483  *   0.24144251  *
     3       C         -5.89567230  *   2.22981650  *   1.33770648  *
     4       N         -4.00047160  *   1.76178912  *  -0.30778958  *
     5       C         -4.65802715  *   0.64939234  *  -1.03549133  *
     6       C         -3.74462109  *  -0.59022675  *  -1.13457924  *
     7       C         -2.28380943  *  -0.14666349  *  -1.23766242  *
     8       C         -1.85152547  *   0.59243786  *   0.03661874  *
     9       C         -1.18487697  *  -0.33511407  *   1.07952882  *
    10       N          0.10946576  *  -0.85529971  *   0.60348682  *
    11       C          1.19936911  *   0.06294654  *   0.64713107  *
    12       O          1.00388675  *   1.16525689  *   1.10899098  *
    13       C          2.47093387  *  -0.43389998  *   0.13696220  *
    14       C          3.60059344  *   0.39463297  *   0.11529131  *
    15       C          4.80439618  *  -0.10118880  *  -0.36126292  *
    16       C          4.88755316  *  -1.43502661  *  -0.81586231  *
    17       C          3.78224289  *  -2.25965797  *  -0.80629665  *
    18       C          2.55016586  *  -1.75886546  *  -0.32886116  *
    19       N          1.43813094  *  -2.58669119  *  -0.32595354  *
    20       C          0.27738476  *  -2.14982935  *   0.10835002  *
    21       C         -0.89655467  *  -3.11936564  *   0.10715393  *
    22       C         -0.84601129  *  -3.91914697  *   1.41246818  *
    23       C         -0.82422797  *  -4.04278204  *  -1.11089496  *
    24       C          5.99372525  *   0.75473273  *  -0.39978017  *
    25       C          6.39285346  *   1.45241798  *   0.74560575  *
    26       C          7.52007010  *   2.26815648  *   0.71683508  *
    27       C          8.22811859  *   2.36473504  *  -0.48007253  *
    28       F          9.30344029  *   3.13791865  *  -0.51865947  *
    29       C          7.85646062  *   1.68427482  *  -1.63861005  *
    30       C          6.72541631  *   0.87545505  *  -1.58629849  *
    31       C         -3.06686667  *   1.26641248  *   0.72679400  *
    32       H         -6.51840742  *   2.68035274  *  -1.29700016  *
    33       H         -6.28986911  *   4.27557732  *  -0.57122566  *
    34       H         -5.11008516  *   3.65542892  *  -1.73869119  *
    35       H         -4.30990425  *   3.57264650  *   0.68566547  *
    36       H         -6.55590846  *   3.02608961  *   1.69679169  *
    37       H         -6.53301625  *   1.42042414  *   0.97083902  *
    38       H         -5.33862276  *   1.85085090  *   2.19934208  *
    39       H         -5.63098727  *   0.35720686  *  -0.58891379  *
    40       H         -4.87067034  *   1.03732622  *  -2.05813750  *
    41       H         -4.03239201  *  -1.19240128  *  -2.01469971  *
    42       H         -3.88771342  *  -1.24394377  *  -0.25642604  *
    43       H         -2.17345061  *   0.53899580  *  -2.10487899  *
    44       H         -1.62097803  *  -1.00054278  *  -1.45408216  *
    45       H         -1.12262904  *   1.39289002  *  -0.24889045  *
    46       H         -0.99389085  *   0.24711200  *   2.01804267  *
    47       H         -1.86272751  *  -1.16702769  *   1.35969026  *
    48       H          3.51272707  *   1.42597758  *   0.47087323  *
    49       H          5.84719040  *  -1.81256202  *  -1.17322088  *
    50       H          3.83142436  *  -3.29000921  *  -1.15603205  *
    51       H         -1.86461399  *  -2.55674522  *   0.05332904  *
    52       H          0.08003501  *  -4.50808669  *   1.47992983  *
    53       H         -0.88487997  *  -3.27106250  *   2.29504605  *
    54       H         -1.68316041  *  -4.62328385  *   1.47543781  *
    55       H         -1.67725139  *  -4.72721717  *  -1.14272317  *
    56       H         -0.80638307  *  -3.47323897  *  -2.04787362  *
    57       H          0.09434085  *  -4.64938865  *  -1.09807883  *
    58       H          5.81917892  *   1.35277831  *   1.66827442  *
    59       H          7.83651087  *   2.81270174  *   1.60452112  *
    60       H          8.43004452  *   1.78085678  *  -2.55819719  *
    61       H          6.40225663  *   0.33827798  *  -2.47821636  *
    62       H         -2.70556687  *   2.13001792  *   1.32785904  *
    63       H         -3.55447549  *   0.56140002  *   1.43268010  *

                             CARTESIAN COORDINATES

   1    C       -5.768558274     3.373217746    -0.906008886
   2    C       -4.949139542     2.758744827     0.241442511
   3    C       -5.895672302     2.229816496     1.337706482
   4    N       -4.000471596     1.761789124    -0.307789579
   5    C       -4.658027148     0.649392340    -1.035491328
   6    C       -3.744621087    -0.590226746    -1.134579240
   7    C       -2.283809430    -0.146663493    -1.237662421
   8    C       -1.851525472     0.592437856     0.036618736
   9    C       -1.184876972    -0.335114073     1.079528821
  10    N        0.109465762    -0.855299714     0.603486824
  11    C        1.199369106     0.062946537     0.647131075
  12    O        1.003886754     1.165256891     1.108990980
  13    C        2.470933872    -0.433899981     0.136962204
  14    C        3.600593437     0.394632967     0.115291306
  15    C        4.804396182    -0.101188799    -0.361262920
  16    C        4.887553160    -1.435026613    -0.815862313
  17    C        3.782242887    -2.259657968    -0.806296654
  18    C        2.550165860    -1.758865462    -0.328861164
  19    N        1.438130942    -2.586691194    -0.325953537
  20    C        0.277384759    -2.149829347     0.108350024
  21    C       -0.896554672    -3.119365640     0.107153928
  22    C       -0.846011294    -3.919146965     1.412468183
  23    C       -0.824227973    -4.042782043    -1.110894962
  24    C        5.993725255     0.754732729    -0.399780168
  25    C        6.392853463     1.452417980     0.745605751
  26    C        7.520070102     2.268156484     0.716835081
  27    C        8.228118589     2.364735043    -0.480072534
  28    F        9.303440287     3.137918653    -0.518659467
  29    C        7.856460616     1.684274823    -1.638610049
  30    C        6.725416314     0.875455052    -1.586298493
  31    C       -3.066866668     1.266412485     0.726794002
  32    H       -6.518407417     2.680352739    -1.297000163
  33    H       -6.289869107     4.275577316    -0.571225661
  34    H       -5.110085161     3.655428922    -1.738691187
  35    H       -4.309904252     3.572646499     0.685665470
  36    H       -6.555908464     3.026089608     1.696791689
  37    H       -6.533016255     1.420424142     0.970839022
  38    H       -5.338622760     1.850850900     2.199342081
  39    H       -5.630987274     0.357206860    -0.588913785
  40    H       -4.870670336     1.037326216    -2.058137499
  41    H       -4.032392012    -1.192401279    -2.014699711
  42    H       -3.887713418    -1.243943771    -0.256426039
  43    H       -2.173450605     0.538995804    -2.104878993
  44    H       -1.620978027    -1.000542778    -1.454082161
  45    H       -1.122629037     1.392890019    -0.248890450
  46    H       -0.993890848     0.247112003     2.018042672
  47    H       -1.862727507    -1.167027691     1.359690265
  48    H        3.512727070     1.425977585     0.470873234
  49    H        5.847190397    -1.812562018    -1.173220881
  50    H        3.831424356    -3.290009210    -1.156032049
  51    H       -1.864613993    -2.556745224     0.053329038
  52    H        0.080035009    -4.508086692     1.479929826
  53    H       -0.884879971    -3.271062495     2.295046054
  54    H       -1.683160408    -4.623283854     1.475437808
  55    H       -1.677251394    -4.727217174    -1.142723172
  56    H       -0.806383072    -3.473238969    -2.047873617
  57    H        0.094340855    -4.649388648    -1.098078835
  58    H        5.819178925     1.352778313     1.668274418
  59    H        7.836510867     2.812701736     1.604521123
  60    H        8.430044522     1.780856783    -2.558197190
  61    H        6.402256626     0.338277985    -2.478216361
  62    H       -2.705566867     2.130017916     1.327859043
  63    H       -3.554475486     0.561400024     1.432680100


           Empirical Formula: C26 H32 N3 O F  =    63 atoms



      MOLECULAR POINT GROUP   :   C1  


                  EIGENVALUES  
 -41.06309 -37.95764 -35.16178 -35.01036 -31.25684 -30.85090 -30.32269 -29.47408
 -28.91292 -27.23396 -27.13659 -26.87397 -26.57747 -26.20241 -24.86649 -24.37311
 -24.22759 -23.86435 -23.27083 -22.82808 -22.18511 -21.71729 -21.32328 -21.18793
 -20.54031 -19.78439 -19.52946 -19.18982 -18.38871 -17.95115 -17.83662 -17.28176
 -17.06618 -16.90086 -16.80357 -16.68079 -16.34202 -16.22203 -15.75088 -15.65445
 -15.46751 -15.25212 -15.12601 -14.97783 -14.84828 -14.79839 -14.71364 -14.55059
 -14.54281 -14.48107 -14.31465 -14.19223 -13.88209 -13.71710 -13.57428 -13.47622
 -13.39101 -13.31228 -13.18834 -12.94408 -12.81586 -12.74727 -12.66233 -12.56342
 -12.48316 -12.41519 -12.31184 -12.19164 -12.07130 -11.94219 -11.67552 -11.50098
 -11.30752 -11.07903 -10.73731 -10.59336 -10.53033 -10.27871 -10.23393  -9.78384
  -8.82204  -8.61201  -0.75019  -0.46405  -0.13937   0.01644   0.86108   1.09916
   1.41529   2.22178   2.57234   2.61872   2.79976   2.96110   3.05809   3.26318
   3.54610   3.57266   3.68362   3.85583   3.88452   3.95028   4.03361   4.05554
   4.08454   4.16468   4.24699   4.27204   4.29810   4.40522   4.51300   4.58221
   4.67766   4.72908   4.82021   4.90559   4.93213   4.95761   5.01670   5.09245
   5.23876   5.37168   5.40759   5.43384   5.45732   5.49022   5.53791   5.57737
   5.58824   5.61553   5.68274   5.70562   5.71830   5.76327   5.77892   5.83184
   5.84752   5.85882   5.88143   5.91152   5.92434   5.95380   5.98445   5.99302
   6.02977   6.10469   6.16545   6.23035   6.34665   6.42665   6.46608   6.63639
   6.68628   6.91504   6.92725   7.09161


              NET ATOMIC CHARGES AND DIPOLE CONTRIBUTIONS

  ATOM NO.   TYPE          CHARGE      No. of ELECS.   s-Pop       p-Pop       
    1          C          -0.464897        4.4649     1.05873     3.40617
    2          C           0.097417        3.9026     1.06627     2.83631
    3          C          -0.503927        4.5039     1.06221     3.44172
    4          N          -0.448134        5.4481     1.68148     3.76666
    5          C          -0.100293        4.1003     1.06792     3.03238
    6          C          -0.281806        4.2818     1.06171     3.22010
    7          C          -0.267838        4.2678     1.05868     3.20916
    8          C          -0.126105        4.1261     1.07406     3.05205
    9          C          -0.095342        4.0953     1.07515     3.02019
   10          N          -0.493346        5.4933     1.58476     3.90858
   11          C           0.587169        3.4128     1.07778     2.33505
   12          O          -0.489736        6.4897     1.88038     4.60936
   13          C          -0.255877        4.2559     1.06778     3.18810
   14          C          -0.047074        4.0471     1.08946     2.95761
   15          C          -0.073771        4.0738     1.05693     3.01684
   16          C          -0.082306        4.0823     1.08972     2.99259
   17          C          -0.194101        4.1941     1.08135     3.11275
   18          C           0.241099        3.7589     1.06176     2.69714
   19          N          -0.510734        5.5107     1.74337     3.76736
   20          C           0.403129        3.5969     1.09776     2.49911
   21          C          -0.080515        4.0805     1.06106     3.01946
   22          C          -0.446466        4.4465     1.05544     3.39103
   23          C          -0.435354        4.4354     1.05414     3.38121
   24          C          -0.030832        4.0308     1.05977     2.97106
   25          C          -0.107093        4.1071     1.08613     3.02097
   26          C          -0.220741        4.2207     1.08147     3.13928
   27          C           0.197762        3.8022     1.09691     2.70533
   28          F          -0.176563        7.1766     1.96608     5.21048
   29          C          -0.222277        4.2223     1.08115     3.14113
   30          C          -0.113312        4.1133     1.08539     3.02792
   31          C          -0.110445        4.1104     1.06977     3.04068
   32          H           0.142920        0.8571     0.85708
   33          H           0.145102        0.8549     0.85490
   34          H           0.162072        0.8379     0.83793
   35          H           0.137444        0.8626     0.86256
   36          H           0.151797        0.8482     0.84820
   37          H           0.146480        0.8535     0.85352
   38          H           0.145903        0.8541     0.85410
   39          H           0.109237        0.8908     0.89076
   40          H           0.139866        0.8601     0.86013
   41          H           0.135807        0.8642     0.86419
   42          H           0.129580        0.8704     0.87042
   43          H           0.158299        0.8417     0.84170
   44          H           0.133550        0.8664     0.86645
   45          H           0.170447        0.8296     0.82955
   46          H           0.170266        0.8297     0.82973
   47          H           0.142950        0.8570     0.85705
   48          H           0.180302        0.8197     0.81970
   49          H           0.157636        0.8424     0.84236
   50          H           0.177858        0.8221     0.82214
   51          H           0.156114        0.8439     0.84389
   52          H           0.166158        0.8338     0.83384
   53          H           0.148050        0.8520     0.85195
   54          H           0.151959        0.8480     0.84804
   55          H           0.143615        0.8564     0.85639
   56          H           0.152079        0.8479     0.84792
   57          H           0.173694        0.8263     0.82631
   58          H           0.165245        0.8348     0.83475
   59          H           0.173715        0.8263     0.82628
   60          H           0.172342        0.8277     0.82766
   61          H           0.160391        0.8396     0.83961
   62          H           0.141122        0.8589     0.85888
   63          H           0.110310        0.8897     0.88969
 DIPOLE           X         Y         Z       TOTAL
 POINT-CHG.    -4.232    -3.535    -0.016     5.514
 HYBRID        -0.412     0.462     0.842     1.045
 SUM           -4.645    -3.072     0.826     5.630


          ATOMIC ORBITAL ELECTRON POPULATIONS

     Atom    s        px        py        pz   
    1  C   1.05873   1.13948   1.14982   1.11686
    2  C   1.06627   0.93979   0.95646   0.94006
    3  C   1.06221   1.14369   1.17231   1.12572
    4  N   1.68148   1.24273   1.20520   1.31873
    5  C   1.06792   1.01941   0.93286   1.08011
    6  C   1.06171   1.01895   1.04855   1.15260
    7  C   1.05868   1.01429   1.12280   1.07206
    8  C   1.07406   1.03317   1.04079   0.97809
    9  C   1.07515   0.86520   1.08506   1.06994
   10  N   1.58476   1.18083   1.18105   1.54670
   11  C   1.07778   0.81252   0.77836   0.74417
   12  O   1.88038   1.82502   1.29414   1.49020
   13  C   1.06778   1.01196   1.02654   1.14959
   14  C   1.08946   0.95488   1.06717   0.93556
   15  C   1.05693   0.98055   0.98579   1.05049
   16  C   1.08972   1.05550   0.98270   0.95439
   17  C   1.08135   0.97011   1.09165   1.05100
   18  C   1.06176   0.90840   0.89285   0.89589
   19  N   1.74337   1.06612   1.38948   1.31176
   20  C   1.09776   0.91557   0.78471   0.79883
   21  C   1.06106   1.02126   0.99802   1.00018
   22  C   1.05544   1.19509   1.14039   1.05556
   23  C   1.05414   1.18933   1.12453   1.06735
   24  C   1.05977   0.98588   1.00141   0.98378
   25  C   1.08613   1.00011   0.96761   1.05325
   26  C   1.08147   1.02244   1.06060   1.05623
   27  C   1.09691   0.84019   0.89665   0.96849
   28  F   1.96608   1.50028   1.72551   1.98469
   29  C   1.08115   1.04540   1.03257   1.06316
   30  C   1.08539   0.97914   1.00027   1.04851
   31  C   1.06977   0.97296   1.09515   0.97256
   32  H   0.85708
   33  H   0.85490
   34  H   0.83793
   35  H   0.86256
   36  H   0.84820
   37  H   0.85352
   38  H   0.85410
   39  H   0.89076
   40  H   0.86013
   41  H   0.86419
   42  H   0.87042
   43  H   0.84170
   44  H   0.86645
   45  H   0.82955
   46  H   0.82973
   47  H   0.85705
   48  H   0.81970
   49  H   0.84236
   50  H   0.82214
   51  H   0.84389
   52  H   0.83384
   53  H   0.85195
   54  H   0.84804
   55  H   0.85639
   56  H   0.84792
   57  H   0.82631
   58  H   0.83475
   59  H   0.82628
   60  H   0.82766
   61  H   0.83961
   62  H   0.85888
   63  H   0.88969

 **********************
 *                    *
 * JOB ENDED NORMALLY *
 *                    *
 **********************



 TOTAL JOB TIME:             6.43 SECONDS

 == MOPAC DONE ==
