 *******************************************************************************
 **                                                                           **
 **                              MOPAC v23.0.3                                **
 **                                                                           **
 *******************************************************************************
 **          Digital Object Identifier (DOI): 10.5281/zenodo.6511958          **
 **    Visit the DOI location for information on how to cite this program.    **
 *******************************************************************************

                              PM7 CALCULATION RESULTS

 *******************************************************************************
 *  CALCULATION DONE:                                Fri Jul 25 18:39:43 2025  *
 *  PM7        - The PM7 Hamiltonian to be used
 *  XYZ        - CARTESIAN COORDINATE SYSTEM TO BE USED
 *  T=         - A TIME OF 172800.0 SECONDS REQUESTED
 *  DUMP=N     - RESTART FILE WRITTEN EVERY 7200.0 SECONDS REQUESTED
 *******************************************************************************
PM7 XYZ

 Lipophilicity_1937 - geometry optimisation
   ATOM   CHEMICAL          X               Y               Z
  NUMBER   SYMBOL      (ANGSTROMS)     (ANGSTROMS)     (ANGSTROMS)

     1       C          5.33256700  *   2.13395700  *  -1.64493700  *
     2       O          5.82547000  *   1.07354800  *  -0.83243700  *
     3       C          5.01536200  *   0.19128900  *  -0.10177000  *
     4       C          5.63749600  *  -0.80716000  *   0.65403500  *
     5       C          4.87599500  *  -1.71223900  *   1.39443500  *
     6       C          3.48233800  *  -1.62587900  *   1.39168900  *
     7       C          2.83154200  *  -0.62300500  *   0.64845800  *
     8       C          3.60900600  *   0.27758400  *  -0.10461100  *
     9       C          1.34970100  *  -0.51927300  *   0.62399100  *
    10       C          0.56407800  *  -0.90825400  *   1.72327300  *
    11       C         -0.83055000  *  -0.79140700  *   1.66366200  *
    12       O         -1.60864100  *  -1.17854400  *   2.75551000  *
    13       C         -1.43563400  *  -0.28128800  *   0.50227800  *
    14       C         -2.83090700  *  -0.14362200  *   0.39294200  *
    15       C         -3.40610900  *   0.36609000  *  -0.78611900  *
    16       N         -4.82856600  *   0.53543500  *  -0.91315400  *
    17       C         -5.79956600  *  -0.35121900  *  -0.33615400  *
    18       O         -5.45482500  *  -1.47610100  *   0.11666500  *
    19       C         -7.24745100  *   0.01589400  *  -0.35913200  *
    20       C         -2.57116300  *   0.77263100  *  -1.83738400  *
    21       C         -1.18452000  *   0.63931000  *  -1.73631400  *
    22       C         -0.61287300  *   0.11134700  *  -0.57550500  *
    23       N          0.73687200  *  -0.01587800  *  -0.48318500  *
    24       H          4.69033400  *   1.72780300  *  -2.45479300  *
    25       H          6.18985300  *   2.66656700  *  -2.10506600  *
    26       H          4.75777600  *   2.85435400  *  -1.02535300  *
    27       H          6.71738800  *  -0.88448700  *   0.66312100  *
    28       H          5.36746000  *  -2.48807300  *   1.96734800  *
    29       H          2.91921900  *  -2.36018700  *   1.95208700  *
    30       H          3.11647300  *   1.05012500  *  -0.67969500  *
    31       H          1.02318100  *  -1.27654200  *   2.63114800  *
    32       H         -1.19121300  *  -1.54836100  *   3.60159400  *
    33       H         -3.46571600  *  -0.40612600  *   1.22904600  *
    34       H         -5.17916900  *   1.30044500  *  -1.53342500  *
    35       H         -7.36568800  *   1.10123600  *  -0.15774200  *
    36       H         -7.67240300  *  -0.21932500  *  -1.35694600  *
    37       H         -7.80251200  *  -0.55225200  *   0.41723500  *
    38       H         -2.99900500  *   1.18459700  *  -2.74281300  *
    39       H         -0.55559800  *   0.94897500  *  -2.56198300  *



          CARTESIAN COORDINATES 

    NO.       ATOM           X           Y           Z

     1         C          5.3326      2.1340     -1.6449
     2         O          5.8255      1.0735     -0.8324
     3         C          5.0154      0.1913     -0.1018
     4         C          5.6375     -0.8072      0.6540
     5         C          4.8760     -1.7122      1.3944
     6         C          3.4823     -1.6259      1.3917
     7         C          2.8315     -0.6230      0.6485
     8         C          3.6090      0.2776     -0.1046
     9         C          1.3497     -0.5193      0.6240
    10         C          0.5641     -0.9083      1.7233
    11         C         -0.8306     -0.7914      1.6637
    12         O         -1.6086     -1.1785      2.7555
    13         C         -1.4356     -0.2813      0.5023
    14         C         -2.8309     -0.1436      0.3929
    15         C         -3.4061      0.3661     -0.7861
    16         N         -4.8286      0.5354     -0.9132
    17         C         -5.7996     -0.3512     -0.3362
    18         O         -5.4548     -1.4761      0.1167
    19         C         -7.2475      0.0159     -0.3591
    20         C         -2.5712      0.7726     -1.8374
    21         C         -1.1845      0.6393     -1.7363
    22         C         -0.6129      0.1113     -0.5755
    23         N          0.7369     -0.0159     -0.4832
    24         H          4.6903      1.7278     -2.4548
    25         H          6.1899      2.6666     -2.1051
    26         H          4.7578      2.8544     -1.0254
    27         H          6.7174     -0.8845      0.6631
    28         H          5.3675     -2.4881      1.9673
    29         H          2.9192     -2.3602      1.9521
    30         H          3.1165      1.0501     -0.6797
    31         H          1.0232     -1.2765      2.6311
    32         H         -1.1912     -1.5484      3.6016
    33         H         -3.4657     -0.4061      1.2290
    34         H         -5.1792      1.3004     -1.5334
    35         H         -7.3657      1.1012     -0.1577
    36         H         -7.6724     -0.2193     -1.3569
    37         H         -7.8025     -0.5523      0.4172
    38         H         -2.9990      1.1846     -2.7428
    39         H         -0.5556      0.9490     -2.5620

 General Reference for PM7:
 "Optimization of Parameters for Semiempirical Methods VI: More Modifications to the 
 NDDO Approximations and Re-optimization of Parameters", J. J. P. Stewart, J. Mol. Mod., 1:32, 19 (2013)
 https://link.springer.com/article/10.1007/s00894-012-1667-x

           Empirical Formula: C18 H16 N2 O3  =    39 atoms



      MOLECULAR POINT GROUP   :   C1  


      RHF CALCULATION, NO. OF DOUBLY OCCUPIED LEVELS = 58


          Geometry optimization using L-BFGS
 CYCLE:     1 TIME:   0.047 TIME LEFT:  2.00D  GRAD.:   216.251 HEAT: -37.26749
 CYCLE:     2 TIME:   0.023 TIME LEFT:  2.00D  GRAD.:   211.537 HEAT: -37.73007
 CYCLE:     3 TIME:   0.023 TIME LEFT:  2.00D  GRAD.:    73.453 HEAT: -50.00558
 CYCLE:     4 TIME:   0.031 TIME LEFT:  2.00D  GRAD.:   211.440 HEAT: -37.73021
 CYCLE:     5 TIME:   0.023 TIME LEFT:  2.00D  GRAD.:   202.605 HEAT: -38.66692
 CYCLE:     6 TIME:   0.031 TIME LEFT:  2.00D  GRAD.:    82.817 HEAT: -50.84439
 CYCLE:     7 TIME:   0.023 TIME LEFT:  2.00D  GRAD.:    58.441 HEAT: -52.18343
 CYCLE:     8 TIME:   0.023 TIME LEFT:  2.00D  GRAD.:    45.604 HEAT: -54.50017
 CYCLE:     9 TIME:   0.023 TIME LEFT:  2.00D  GRAD.:    38.410 HEAT: -55.94735
 CYCLE:    10 TIME:   0.023 TIME LEFT:  2.00D  GRAD.:    46.066 HEAT: -56.98371
 CYCLE:    11 TIME:   0.023 TIME LEFT:  2.00D  GRAD.:    34.438 HEAT: -57.48910
 CYCLE:    12 TIME:   0.023 TIME LEFT:  2.00D  GRAD.:    17.810 HEAT: -57.78118
 CYCLE:    13 TIME:   0.023 TIME LEFT:  2.00D  GRAD.:    14.898 HEAT: -58.03028
 CYCLE:    14 TIME:   0.016 TIME LEFT:  2.00D  GRAD.:    17.835 HEAT: -58.27064
 CYCLE:    15 TIME:   0.023 TIME LEFT:  2.00D  GRAD.:    21.928 HEAT: -58.50734
 CYCLE:    16 TIME:   0.031 TIME LEFT:  2.00D  GRAD.:    17.668 HEAT: -58.62935
 CYCLE:    17 TIME:   0.016 TIME LEFT:  2.00D  GRAD.:     7.739 HEAT: -58.72155
 CYCLE:    18 TIME:   0.023 TIME LEFT:  2.00D  GRAD.:     7.901 HEAT: -58.77510
 CYCLE:    19 TIME:   0.023 TIME LEFT:  2.00D  GRAD.:    10.163 HEAT: -58.84789
 CYCLE:    20 TIME:   0.023 TIME LEFT:  2.00D  GRAD.:    17.685 HEAT: -58.92142
 CYCLE:    21 TIME:   0.023 TIME LEFT:  2.00D  GRAD.:     8.293 HEAT: -59.00829
 CYCLE:    22 TIME:   0.023 TIME LEFT:  2.00D  GRAD.:     6.507 HEAT: -59.05503
 CYCLE:    23 TIME:   0.023 TIME LEFT:  2.00D  GRAD.:     9.262 HEAT: -59.10453
 CYCLE:    24 TIME:   0.016 TIME LEFT:  2.00D  GRAD.:    11.117 HEAT: -59.14392
 CYCLE:    25 TIME:   0.023 TIME LEFT:  2.00D  GRAD.:     6.749 HEAT: -59.18178
 CYCLE:    26 TIME:   0.031 TIME LEFT:  2.00D  GRAD.:     5.318 HEAT: -59.22110
 CYCLE:    27 TIME:   0.023 TIME LEFT:  2.00D  GRAD.:     5.991 HEAT: -59.24150
 CYCLE:    28 TIME:   0.023 TIME LEFT:  2.00D  GRAD.:     5.229 HEAT: -59.27249
 CYCLE:    29 TIME:   0.016 TIME LEFT:  2.00D  GRAD.:     9.657 HEAT: -59.28745
 CYCLE:    30 TIME:   0.023 TIME LEFT:  2.00D  GRAD.:     4.048 HEAT: -59.31026
 CYCLE:    31 TIME:   0.023 TIME LEFT:  2.00D  GRAD.:     3.248 HEAT: -59.32304
 CYCLE:    32 TIME:   0.023 TIME LEFT:  2.00D  GRAD.:     4.088 HEAT: -59.33917
 CYCLE:    33 TIME:   0.023 TIME LEFT:  2.00D  GRAD.:     7.311 HEAT: -59.36646
 CYCLE:    34 TIME:   0.023 TIME LEFT:  2.00D  GRAD.:     6.325 HEAT: -59.39209
 CYCLE:    35 TIME:   0.031 TIME LEFT:  2.00D  GRAD.:     4.316 HEAT: -59.41599
 CYCLE:    36 TIME:   0.023 TIME LEFT:  2.00D  GRAD.:     5.895 HEAT: -59.45210
 CYCLE:    37 TIME:   0.023 TIME LEFT:  2.00D  GRAD.:     8.759 HEAT: -59.47511
 CYCLE:    38 TIME:   0.016 TIME LEFT:  2.00D  GRAD.:     7.551 HEAT: -59.50697
 CYCLE:    39 TIME:   0.023 TIME LEFT:  2.00D  GRAD.:     9.671 HEAT: -59.54706
 CYCLE:    40 TIME:   0.031 TIME LEFT:  2.00D  GRAD.:     6.483 HEAT: -59.58526
 CYCLE:    41 TIME:   0.016 TIME LEFT:  2.00D  GRAD.:    10.212 HEAT: -59.59436
 CYCLE:    42 TIME:   0.023 TIME LEFT:  2.00D  GRAD.:     4.134 HEAT: -59.61435
 CYCLE:    43 TIME:   0.023 TIME LEFT:  2.00D  GRAD.:     2.939 HEAT: -59.62476
 CYCLE:    44 TIME:   0.023 TIME LEFT:  2.00D  GRAD.:     4.032 HEAT: -59.63882
 CYCLE:    45 TIME:   0.023 TIME LEFT:  2.00D  GRAD.:     6.302 HEAT: -59.66017
 CYCLE:    46 TIME:   0.023 TIME LEFT:  2.00D  GRAD.:    12.028 HEAT: -59.66140
 CYCLE:    47 TIME:   0.023 TIME LEFT:  2.00D  GRAD.:     4.093 HEAT: -59.69393
 CYCLE:    48 TIME:   0.023 TIME LEFT:  2.00D  GRAD.:     3.047 HEAT: -59.70962
 CYCLE:    49 TIME:   0.023 TIME LEFT:  2.00D  GRAD.:     5.513 HEAT: -59.73830
 CYCLE:    50 TIME:   0.023 TIME LEFT:  2.00D  GRAD.:     9.788 HEAT: -59.76053
 CYCLE:    51 TIME:   0.023 TIME LEFT:  2.00D  GRAD.:     5.238 HEAT: -59.79048
 CYCLE:    52 TIME:   0.023 TIME LEFT:  2.00D  GRAD.:     4.055 HEAT: -59.81517
 CYCLE:    53 TIME:   0.023 TIME LEFT:  2.00D  GRAD.:     6.605 HEAT: -59.82982
 CYCLE:    54 TIME:   0.023 TIME LEFT:  2.00D  GRAD.:     5.628 HEAT: -59.85106
 CYCLE:    55 TIME:   0.023 TIME LEFT:  2.00D  GRAD.:     5.525 HEAT: -59.87201
 CYCLE:    56 TIME:   0.023 TIME LEFT:  2.00D  GRAD.:     4.704 HEAT: -59.89116
 CYCLE:    57 TIME:   0.023 TIME LEFT:  2.00D  GRAD.:     5.451 HEAT: -59.90698
 CYCLE:    58 TIME:   0.023 TIME LEFT:  2.00D  GRAD.:     3.303 HEAT: -59.92360
 CYCLE:    59 TIME:   0.023 TIME LEFT:  2.00D  GRAD.:     4.217 HEAT: -59.93376
 CYCLE:    60 TIME:   0.023 TIME LEFT:  2.00D  GRAD.:     4.165 HEAT: -59.94708
 CYCLE:    61 TIME:   0.023 TIME LEFT:  2.00D  GRAD.:     3.442 HEAT: -59.95707
 CYCLE:    62 TIME:   0.023 TIME LEFT:  2.00D  GRAD.:     2.009 HEAT: -59.96208
 CYCLE:    63 TIME:   0.023 TIME LEFT:  2.00D  GRAD.:     2.481 HEAT: -59.96502
 CYCLE:    64 TIME:   0.023 TIME LEFT:  2.00D  GRAD.:     2.133 HEAT: -59.96985
 CYCLE:    65 TIME:   0.023 TIME LEFT:  2.00D  GRAD.:     4.301 HEAT: -59.97421
 CYCLE:    66 TIME:   0.023 TIME LEFT:  2.00D  GRAD.:     2.150 HEAT: -59.97875
 CYCLE:    67 TIME:   0.023 TIME LEFT:  2.00D  GRAD.:     1.803 HEAT: -59.98033
 CYCLE:    68 TIME:   0.023 TIME LEFT:  2.00D  GRAD.:     1.801 HEAT: -59.98491
 CYCLE:    69 TIME:   0.023 TIME LEFT:  2.00D  GRAD.:     5.669 HEAT: -59.98723
 CYCLE:    70 TIME:   0.023 TIME LEFT:  2.00D  GRAD.:     2.355 HEAT: -59.99417
 CYCLE:    71 TIME:   0.023 TIME LEFT:  2.00D  GRAD.:     2.092 HEAT: -59.99858
 CYCLE:    72 TIME:   0.023 TIME LEFT:  2.00D  GRAD.:     1.964 HEAT: -60.00233
 CYCLE:    73 TIME:   0.023 TIME LEFT:  2.00D  GRAD.:     4.121 HEAT: -60.00723
 CYCLE:    74 TIME:   0.023 TIME LEFT:  2.00D  GRAD.:     3.226 HEAT: -60.01019
 CYCLE:    75 TIME:   0.023 TIME LEFT:  2.00D  GRAD.:     1.317 HEAT: -60.01219
 CYCLE:    76 TIME:   0.023 TIME LEFT:  2.00D  GRAD.:     1.060 HEAT: -60.01328
 CYCLE:    77 TIME:   0.023 TIME LEFT:  2.00D  GRAD.:     1.578 HEAT: -60.01559
 CYCLE:    78 TIME:   0.023 TIME LEFT:  2.00D  GRAD.:     1.873 HEAT: -60.01817
 CYCLE:    79 TIME:   0.023 TIME LEFT:  2.00D  GRAD.:     4.402 HEAT: -60.01951
 CYCLE:    80 TIME:   0.023 TIME LEFT:  2.00D  GRAD.:     1.533 HEAT: -60.02408
 CYCLE:    81 TIME:   0.023 TIME LEFT:  2.00D  GRAD.:     1.588 HEAT: -60.02621
 CYCLE:    82 TIME:   0.023 TIME LEFT:  2.00D  GRAD.:     2.159 HEAT: -60.02951
 CYCLE:    83 TIME:   0.023 TIME LEFT:  2.00D  GRAD.:     2.498 HEAT: -60.03584
 CYCLE:    84 TIME:   0.023 TIME LEFT:  2.00D  GRAD.:     4.786 HEAT: -60.03824
 CYCLE:    85 TIME:   0.023 TIME LEFT:  2.00D  GRAD.:     2.775 HEAT: -60.04435
 CYCLE:    86 TIME:   0.023 TIME LEFT:  2.00D  GRAD.:     1.791 HEAT: -60.04700
 CYCLE:    87 TIME:   0.023 TIME LEFT:  2.00D  GRAD.:     2.140 HEAT: -60.04940
 CYCLE:    88 TIME:   0.023 TIME LEFT:  2.00D  GRAD.:     1.569 HEAT: -60.05116
 CYCLE:    89 TIME:   0.023 TIME LEFT:  2.00D  GRAD.:     1.269 HEAT: -60.05327
 CYCLE:    90 TIME:   0.023 TIME LEFT:  2.00D  GRAD.:     2.066 HEAT: -60.05617
 CYCLE:    91 TIME:   0.023 TIME LEFT:  2.00D  GRAD.:     2.467 HEAT: -60.05823
 CYCLE:    92 TIME:   0.031 TIME LEFT:  2.00D  GRAD.:     1.487 HEAT: -60.06043
 CYCLE:    93 TIME:   0.023 TIME LEFT:  2.00D  GRAD.:     1.408 HEAT: -60.06274
 CYCLE:    94 TIME:   0.023 TIME LEFT:  2.00D  GRAD.:     1.961 HEAT: -60.06450
 CYCLE:    95 TIME:   0.023 TIME LEFT:  2.00D  GRAD.:     1.627 HEAT: -60.06671
 CYCLE:    96 TIME:   0.023 TIME LEFT:  2.00D  GRAD.:     1.466 HEAT: -60.06896
 CYCLE:    97 TIME:   0.023 TIME LEFT:  2.00D  GRAD.:     1.623 HEAT: -60.07106
 CYCLE:    98 TIME:   0.023 TIME LEFT:  2.00D  GRAD.:     1.494 HEAT: -60.07281
 CYCLE:    99 TIME:   0.023 TIME LEFT:  2.00D  GRAD.:     1.246 HEAT: -60.07461
 CYCLE:   100 TIME:   0.031 TIME LEFT:  2.00D  GRAD.:     2.262 HEAT: -60.07614
 CYCLE:   101 TIME:   0.016 TIME LEFT:  2.00D  GRAD.:     0.993 HEAT: -60.07751

 -------------------------------------------------------------------------------
 PM7 XYZ

 Lipophilicity_1937 - geometry optimisation


     HERBERTS TEST WAS SATISFIED IN BFGS                      
     SCF FIELD WAS ACHIEVED                                   


                              PM7 CALCULATION
                                                       MOPAC v23.0.3 Linux
                                                       Fri Jul 25 18:39:45 2025




          FINAL HEAT OF FORMATION =        -60.07751 KCAL/MOL =    -251.36430 KJ/MOL


          COSMO AREA              =        334.20 SQUARE ANGSTROMS
          COSMO VOLUME            =        357.97 CUBIC ANGSTROMS

          GRADIENT NORM           =          0.99278          =       0.15897 PER ATOM
          IONIZATION POTENTIAL    =          8.501993 EV
          HOMO LUMO ENERGIES (EV) =         -8.502 -0.751
          NO. OF FILLED LEVELS    =         58
          MOLECULAR WEIGHT        =        308.3360         POINT GROUP:  C1  

          MOLECULAR DIMENSIONS (Angstroms)

            Atom       Atom       Distance
            H    37    H    27    14.58855
            H    32    H    25     7.11844
            H    36    H    26     2.77010


          SCF CALCULATIONS        =        102

          WALL-CLOCK TIME         =      2.437 SECONDS
          COMPUTATION TIME        =     48.490 SECONDS




   ATOM   CHEMICAL          X               Y               Z
  NUMBER   SYMBOL      (ANGSTROMS)     (ANGSTROMS)     (ANGSTROMS)

     1       C          5.21894797  *   2.11344881  *  -1.53737696  *
     2       O          5.80664278  *   1.10641822  *  -0.72392372  *
     3       C          4.95517619  *   0.24877693  *  -0.09880659  *
     4       C          5.61508885  *  -0.79490195  *   0.56860252  *
     5       C          4.85298853  *  -1.74166301  *   1.23931398  *
     6       C          3.45956019  *  -1.65574835  *   1.25157248  *
     7       C          2.82140371  *  -0.60145343  *   0.59572347  *
     8       C          3.56676848  *   0.36172723  *  -0.08850306  *
     9       C          1.34711134  *  -0.49721325  *   0.60902634  *
    10       C          0.61186875  *  -0.88985987  *   1.76693222  *
    11       C         -0.75873607  *  -0.78441906  *   1.72307823  *
    12       O         -1.56739761  *  -1.11932002  *   2.74918227  *
    13       C         -1.43274453  *  -0.29704842  *   0.56000904  *
    14       C         -2.83615716  *  -0.18806007  *   0.46352082  *
    15       C         -3.40047247  *   0.29140931  *  -0.70188256  *
    16       N         -4.79498253  *   0.42940021  *  -0.88941288  *
    17       C         -5.76415196  *  -0.21569022  *  -0.11632744  *
    18       O         -5.47703333  *  -0.92833762  *   0.81499213  *
    19       C         -7.17980375  *   0.06041285  *  -0.54431477  *
    20       C         -2.57062954  *   0.69385816  *  -1.79568791  *
    21       C         -1.20954680  *   0.59235094  *  -1.71084061  *
    22       C         -0.60479331  *   0.08259775  *  -0.52451783  *
    23       N          0.76517728  *  -0.02104092  *  -0.48581452  *
    24       H          4.61400897  *   1.66878980  *  -2.33486349  *
    25       H          6.09914553  *   2.61725436  *  -1.95730261  *
    26       H          4.63074010  *   2.81016721  *  -0.93190175  *
    27       H          6.69984125  *  -0.85073434  *   0.54409628  *
    28       H          5.34676661  *  -2.56331783  *   1.75800242  *
    29       H          2.87753929  *  -2.42051065  *   1.75958946  *
    30       H          3.05096301  *   1.16510096  *  -0.61173606  *
    31       H          1.13812158  *  -1.24496791  *   2.64368173  *
    32       H         -1.06397329  *  -1.47468829  *   3.52743658  *
    33       H         -3.44549957  *  -0.49444470  *   1.32203987  *
    34       H         -5.08926257  *   0.98901849  *  -1.68027784  *
    35       H         -7.45512092  *   1.11191125  *  -0.38697424  *
    36       H         -7.35903493  *  -0.19299357  *  -1.59635916  *
    37       H         -7.87742718  *  -0.54798694  *   0.05675832  *
    38       H         -3.03541724  *   1.07600391  *  -2.70312527  *
    39       H         -0.55567959  *   0.88772321  *  -2.53360568  *

                             CARTESIAN COORDINATES

   1    C        5.218947969     2.113448812    -1.537376964
   2    O        5.806642775     1.106418225    -0.723923718
   3    C        4.955176195     0.248776927    -0.098806586
   4    C        5.615088852    -0.794901951     0.568602517
   5    C        4.852988531    -1.741663011     1.239313978
   6    C        3.459560193    -1.655748350     1.251572480
   7    C        2.821403711    -0.601453434     0.595723470
   8    C        3.566768479     0.361727234    -0.088503064
   9    C        1.347111336    -0.497213248     0.609026340
  10    C        0.611868752    -0.889859870     1.766932223
  11    C       -0.758736070    -0.784419064     1.723078232
  12    O       -1.567397614    -1.119320016     2.749182272
  13    C       -1.432744529    -0.297048416     0.560009044
  14    C       -2.836157159    -0.188060066     0.463520819
  15    C       -3.400472473     0.291409311    -0.701882561
  16    N       -4.794982530     0.429400214    -0.889412876
  17    C       -5.764151964    -0.215690216    -0.116327441
  18    O       -5.477033329    -0.928337616     0.814992130
  19    C       -7.179803747     0.060412850    -0.544314768
  20    C       -2.570629544     0.693858160    -1.795687911
  21    C       -1.209546805     0.592350945    -1.710840612
  22    C       -0.604793306     0.082597752    -0.524517827
  23    N        0.765177283    -0.021040917    -0.485814517
  24    H        4.614008969     1.668789805    -2.334863495
  25    H        6.099145532     2.617254356    -1.957302607
  26    H        4.630740101     2.810167205    -0.931901748
  27    H        6.699841251    -0.850734342     0.544096275
  28    H        5.346766606    -2.563317828     1.758002417
  29    H        2.877539293    -2.420510650     1.759589464
  30    H        3.050963009     1.165100959    -0.611736065
  31    H        1.138121584    -1.244967912     2.643681729
  32    H       -1.063973286    -1.474688289     3.527436583
  33    H       -3.445499569    -0.494444704     1.322039870
  34    H       -5.089262569     0.989018491    -1.680277835
  35    H       -7.455120919     1.111911246    -0.386974243
  36    H       -7.359034931    -0.192993574    -1.596359155
  37    H       -7.877427183    -0.547986936     0.056758324
  38    H       -3.035417244     1.076003908    -2.703125272
  39    H       -0.555679589     0.887723207    -2.533605685


           Empirical Formula: C18 H16 N2 O3  =    39 atoms



      MOLECULAR POINT GROUP   :   C1  


                  EIGENVALUES  
 -37.24291 -35.77589 -31.11355 -30.88821 -30.68913 -30.33600 -30.05518 -27.96484
 -27.25492 -26.71602 -25.93166 -25.49660 -25.09637 -24.30937 -22.74913 -22.38109
 -21.54084 -20.74409 -20.54434 -19.85433 -18.80021 -18.43721 -17.98136 -17.58885
 -16.92728 -16.31533 -16.19057 -16.07512 -15.98180 -15.83476 -15.36849 -15.28713
 -15.03422 -14.75645 -14.66557 -14.41549 -14.23447 -14.03792 -14.02194 -13.91153
 -13.77029 -13.58853 -13.36536 -13.03997 -12.98662 -12.73477 -12.39460 -12.24218
 -11.78944 -11.63672 -11.06602 -10.71268 -10.61734 -10.27378  -9.89220  -9.60084
  -8.98351  -8.50199  -0.75140  -0.65127   0.23137   0.38280   0.76249   1.07686
   1.63449   1.74668   1.87516   2.04999   2.54222   2.76983   3.21567   3.28481
   3.43683   3.71009   3.92345   3.95340   4.14200   4.18721   4.32394   4.48698
   4.58492   4.67772   4.75833   4.80847   4.85397   4.92277   4.99408   5.04168
   5.08952   5.26332   5.37012   5.38256   5.43408   5.49368   5.51840   5.71312
   5.73198   5.82654   5.96149   5.97994   5.99564   6.01761   6.23599   6.24585
   6.29118   6.38171   6.47356   6.53449


              NET ATOMIC CHARGES AND DIPOLE CONTRIBUTIONS

  ATOM NO.   TYPE          CHARGE      No. of ELECS.   s-Pop       p-Pop       
    1          C          -0.202187        4.2022     1.08722     3.11496
    2          O          -0.320355        6.3204     1.86670     4.45366
    3          C           0.239561        3.7604     1.08561     2.67483
    4          C          -0.241708        4.2417     1.07792     3.16379
    5          C          -0.088795        4.0888     1.08285     3.00595
    6          C          -0.214008        4.2140     1.07766     3.13635
    7          C           0.034580        3.9654     1.06415     2.90127
    8          C          -0.256035        4.2560     1.08008     3.17596
    9          C           0.245065        3.7549     1.07062     2.68431
   10          C          -0.412061        4.4121     1.07753     3.33453
   11          C           0.337807        3.6622     1.08233     2.57986
   12          O          -0.438062        6.4381     1.83880     4.59926
   13          C          -0.126288        4.1263     1.06032     3.06597
   14          C          -0.161997        4.1620     1.08284     3.07916
   15          C           0.176223        3.8238     1.05043     2.77335
   16          N          -0.578335        5.5783     1.55299     4.02534
   17          C           0.611483        3.3885     1.07739     2.31112
   18          O          -0.490186        6.4902     1.87840     4.61179
   19          C          -0.536051        4.5361     1.06406     3.47199
   20          C          -0.196833        4.1968     1.08377     3.11307
   21          C          -0.125906        4.1259     1.08570     3.04020
   22          C           0.169601        3.8304     1.06136     2.76904
   23          N          -0.424111        5.4241     1.74399     3.68012
   24          H           0.139610        0.8604     0.86039
   25          H           0.149242        0.8508     0.85076
   26          H           0.135938        0.8641     0.86406
   27          H           0.169389        0.8306     0.83061
   28          H           0.150831        0.8492     0.84917
   29          H           0.159321        0.8407     0.84068
   30          H           0.184599        0.8154     0.81540
   31          H           0.180799        0.8192     0.81920
   32          H           0.332218        0.6678     0.66778
   33          H           0.213198        0.7868     0.78680
   34          H           0.309724        0.6903     0.69028
   35          H           0.176343        0.8237     0.82366
   36          H           0.172098        0.8279     0.82790
   37          H           0.191712        0.8083     0.80829
   38          H           0.155798        0.8442     0.84420
   39          H           0.177775        0.8222     0.82223
 DIPOLE           X         Y         Z       TOTAL
 POINT-CHG.    -2.328     2.319    -1.991     3.842
 HYBRID        -0.412    -0.110     0.605     0.740
 SUM           -2.739     2.208    -1.386     3.782


          ATOMIC ORBITAL ELECTRON POPULATIONS

     Atom    s        px        py        pz   
    1  C   1.08722   1.12124   0.96520   1.02852
    2  O   1.86670   1.36261   1.46274   1.62831
    3  C   1.08561   0.91390   0.87290   0.88803
    4  C   1.07792   1.09511   1.01002   1.05866
    5  C   1.08285   0.99671   1.02492   0.98432
    6  C   1.07766   1.01609   1.05490   1.06535
    7  C   1.06415   0.94847   0.98018   0.97261
    8  C   1.08008   0.99814   1.09456   1.08326
    9  C   1.07062   0.95370   0.86263   0.86799
   10  C   1.07753   1.01544   1.20928   1.10981
   11  C   1.08233   0.89720   0.84628   0.83638
   12  O   1.83880   1.43996   1.79903   1.36028
   13  C   1.06032   0.99947   1.07549   0.99101
   14  C   1.08284   1.00101   1.02424   1.05391
   15  C   1.05043   0.79699   0.99886   0.97750
   16  N   1.55299   1.12499   1.51980   1.38056
   17  C   1.07739   0.81968   0.73164   0.75980
   18  O   1.87840   1.83254   1.42336   1.35589
   19  C   1.06406   1.07986   1.19988   1.19225
   20  C   1.08377   1.01183   1.05144   1.04979
   21  C   1.08570   1.00392   0.99262   1.04366
   22  C   1.06136   0.86500   0.94540   0.95863
   23  N   1.74399   1.15712   1.21493   1.30808
   24  H   0.86039
   25  H   0.85076
   26  H   0.86406
   27  H   0.83061
   28  H   0.84917
   29  H   0.84068
   30  H   0.81540
   31  H   0.81920
   32  H   0.66778
   33  H   0.78680
   34  H   0.69028
   35  H   0.82366
   36  H   0.82790
   37  H   0.80829
   38  H   0.84420
   39  H   0.82223

 **********************
 *                    *
 * JOB ENDED NORMALLY *
 *                    *
 **********************



 TOTAL JOB TIME:             2.44 SECONDS

 == MOPAC DONE ==
