 *******************************************************************************
 **                                                                           **
 **                              MOPAC v23.0.3                                **
 **                                                                           **
 *******************************************************************************
 **          Digital Object Identifier (DOI): 10.5281/zenodo.6511958          **
 **    Visit the DOI location for information on how to cite this program.    **
 *******************************************************************************

                              PM7 CALCULATION RESULTS

 *******************************************************************************
 *  CALCULATION DONE:                                Fri Jul 25 16:14:41 2025  *
 *  PM7        - The PM7 Hamiltonian to be used
 *  XYZ        - CARTESIAN COORDINATE SYSTEM TO BE USED
 *  T=         - A TIME OF 172800.0 SECONDS REQUESTED
 *  DUMP=N     - RESTART FILE WRITTEN EVERY 7200.0 SECONDS REQUESTED
 *******************************************************************************
PM7 XYZ

 Lipophilicity_1105 - geometry optimisation
   ATOM   CHEMICAL          X               Y               Z
  NUMBER   SYMBOL      (ANGSTROMS)     (ANGSTROMS)     (ANGSTROMS)

     1       C         -1.73846900  *  -4.12705500  *  -1.25594200  *
     2       O         -2.32755600  *  -3.00799900  *  -0.60114800  *
     3       C         -1.77025400  *  -1.71899600  *  -0.56511200  *
     4       C         -0.55263000  *  -1.42063500  *  -1.20070400  *
     5       C         -0.01308900  *  -0.13118200  *  -1.13975800  *
     6       C          1.29495600  *   0.18632400  *  -1.82340500  *
     7       C          2.33882700  *   0.63871200  *  -0.82669500  *
     8       C          2.61235400  *   2.00829400  *  -0.69097500  *
     9       N          3.52122600  *   2.44093900  *   0.21852000  *
    10       C          4.18178400  *   1.56563400  *   1.01707900  *
    11       N          5.13268700  *   2.04256500  *   1.96606000  *
    12       N          3.93416700  *   0.23510300  *   0.91288500  *
    13       C          3.03425500  *  -0.25552800  *   0.01926900  *
    14       N          2.82418600  *  -1.67041600  *  -0.03189400  *
    15       C         -0.71363300  *   0.87354000  *  -0.46079600  *
    16       C         -1.93529700  *   0.59932700  *   0.18375400  *
    17       O         -2.62699800  *   1.60864200  *   0.87228800  *
    18       C         -2.19023600  *   2.95819000  *   1.00094900  *
    19       C         -2.46549600  *  -0.71587800  *   0.13066900  *
    20       O         -3.67562400  *  -1.09584000  *   0.74305100  *
    21       C         -4.54376600  *  -0.25962800  *   1.49989100  *
    22       H         -1.64142900  *  -3.92564100  *  -2.34368200  *
    23       H         -0.74260400  *  -4.34637200  *  -0.81604200  *
    24       H         -2.39092100  *  -5.01311700  *  -1.11630100  *
    25       H         -0.02190100  *  -2.18824000  *  -1.74678000  *
    26       H          1.11079900  *   0.98183200  *  -2.57820100  *
    27       H          1.67781100  *  -0.68221800  *  -2.40033200  *
    28       H          2.09856000  *   2.73592200  *  -1.30607900  *
    29       H          5.64362000  *   1.37392400  *   2.58420900  *
    30       H          5.32691700  *   3.06489200  *   2.05186500  *
    31       H          2.17551100  *  -2.12028100  *  -0.71101100  *
    32       H          3.34709700  *  -2.29426400  *   0.62203500  *
    33       H         -0.29640300  *   1.87066800  *  -0.43912600  *
    34       H         -2.11007300  *   3.43121800  *  -0.00051400  *
    35       H         -2.93316400  *   3.52276600  *   1.60057600  *
    36       H         -1.21106000  *   2.99500200  *   1.52359300  *
    37       H         -4.93094900  *   0.56634300  *   0.86704100  *
    38       H         -4.01563000  *   0.13559900  *   2.39295500  *
    39       H         -5.40757600  *  -0.86214300  *   1.84780900  *



          CARTESIAN COORDINATES 

    NO.       ATOM           X           Y           Z

     1         C         -1.7385     -4.1271     -1.2559
     2         O         -2.3276     -3.0080     -0.6011
     3         C         -1.7703     -1.7190     -0.5651
     4         C         -0.5526     -1.4206     -1.2007
     5         C         -0.0131     -0.1312     -1.1398
     6         C          1.2950      0.1863     -1.8234
     7         C          2.3388      0.6387     -0.8267
     8         C          2.6124      2.0083     -0.6910
     9         N          3.5212      2.4409      0.2185
    10         C          4.1818      1.5656      1.0171
    11         N          5.1327      2.0426      1.9661
    12         N          3.9342      0.2351      0.9129
    13         C          3.0343     -0.2555      0.0193
    14         N          2.8242     -1.6704     -0.0319
    15         C         -0.7136      0.8735     -0.4608
    16         C         -1.9353      0.5993      0.1838
    17         O         -2.6270      1.6086      0.8723
    18         C         -2.1902      2.9582      1.0009
    19         C         -2.4655     -0.7159      0.1307
    20         O         -3.6756     -1.0958      0.7431
    21         C         -4.5438     -0.2596      1.4999
    22         H         -1.6414     -3.9256     -2.3437
    23         H         -0.7426     -4.3464     -0.8160
    24         H         -2.3909     -5.0131     -1.1163
    25         H         -0.0219     -2.1882     -1.7468
    26         H          1.1108      0.9818     -2.5782
    27         H          1.6778     -0.6822     -2.4003
    28         H          2.0986      2.7359     -1.3061
    29         H          5.6436      1.3739      2.5842
    30         H          5.3269      3.0649      2.0519
    31         H          2.1755     -2.1203     -0.7110
    32         H          3.3471     -2.2943      0.6220
    33         H         -0.2964      1.8707     -0.4391
    34         H         -2.1101      3.4312     -0.0005
    35         H         -2.9332      3.5228      1.6006
    36         H         -1.2111      2.9950      1.5236
    37         H         -4.9309      0.5663      0.8670
    38         H         -4.0156      0.1356      2.3930
    39         H         -5.4076     -0.8621      1.8478

 General Reference for PM7:
 "Optimization of Parameters for Semiempirical Methods VI: More Modifications to the 
 NDDO Approximations and Re-optimization of Parameters", J. J. P. Stewart, J. Mol. Mod., 1:32, 19 (2013)
 https://link.springer.com/article/10.1007/s00894-012-1667-x

           Empirical Formula: C14 H18 N4 O3  =    39 atoms



      MOLECULAR POINT GROUP   :   C1  


      RHF CALCULATION, NO. OF DOUBLY OCCUPIED LEVELS = 56


          Geometry optimization using L-BFGS
 CYCLE:     1 TIME:   0.039 TIME LEFT:  2.00D  GRAD.:   188.421 HEAT: -31.03923
 CYCLE:     2 TIME:   0.023 TIME LEFT:  2.00D  GRAD.:   185.422 HEAT: -31.39144
 CYCLE:     3 TIME:   0.023 TIME LEFT:  2.00D  GRAD.:    78.198 HEAT: -46.53793
 CYCLE:     4 TIME:   0.023 TIME LEFT:  2.00D  GRAD.:   185.770 HEAT: -31.39719
 CYCLE:     5 TIME:   0.027 TIME LEFT:  2.00D  GRAD.:    78.323 HEAT: -46.53906
 CYCLE:     6 TIME:   0.020 TIME LEFT:  2.00D  GRAD.:    69.284 HEAT: -49.86687
 CYCLE:     7 TIME:   0.023 TIME LEFT:  2.00D  GRAD.:    85.297 HEAT: -54.63147
 CYCLE:     8 TIME:   0.023 TIME LEFT:  2.00D  GRAD.:    84.787 HEAT: -56.61103
 CYCLE:     9 TIME:   0.023 TIME LEFT:  2.00D  GRAD.:    41.014 HEAT: -58.14133
 CYCLE:    10 TIME:   0.020 TIME LEFT:  2.00D  GRAD.:    28.883 HEAT: -59.34831
 CYCLE:    11 TIME:   0.020 TIME LEFT:  2.00D  GRAD.:    30.429 HEAT: -60.36737
 CYCLE:    12 TIME:   0.023 TIME LEFT:  2.00D  GRAD.:    51.274 HEAT: -60.89688
 CYCLE:    13 TIME:   0.023 TIME LEFT:  2.00D  GRAD.:    18.506 HEAT: -61.48758
 CYCLE:    14 TIME:   0.023 TIME LEFT:  2.00D  GRAD.:    15.128 HEAT: -61.68242
 CYCLE:    15 TIME:   0.020 TIME LEFT:  2.00D  GRAD.:    15.962 HEAT: -62.03947
 CYCLE:    16 TIME:   0.023 TIME LEFT:  2.00D  GRAD.:    34.777 HEAT: -62.07327
 CYCLE:    17 TIME:   0.020 TIME LEFT:  2.00D  GRAD.:     9.647 HEAT: -62.28856
 CYCLE:    18 TIME:   0.023 TIME LEFT:  2.00D  GRAD.:     6.016 HEAT: -62.33021
 CYCLE:    19 TIME:   0.020 TIME LEFT:  2.00D  GRAD.:     7.399 HEAT: -62.37673
 CYCLE:    20 TIME:   0.020 TIME LEFT:  2.00D  GRAD.:     7.757 HEAT: -62.42772
 CYCLE:    21 TIME:   0.023 TIME LEFT:  2.00D  GRAD.:    20.169 HEAT: -62.42962
 CYCLE:    22 TIME:   0.023 TIME LEFT:  2.00D  GRAD.:     5.010 HEAT: -62.50794
 CYCLE:    23 TIME:   0.020 TIME LEFT:  2.00D  GRAD.:     4.325 HEAT: -62.52475
 CYCLE:    24 TIME:   0.023 TIME LEFT:  2.00D  GRAD.:     5.625 HEAT: -62.55841
 CYCLE:    25 TIME:   0.023 TIME LEFT:  2.00D  GRAD.:     8.214 HEAT: -62.59611
 CYCLE:    26 TIME:   0.020 TIME LEFT:  2.00D  GRAD.:     7.237 HEAT: -62.64432
 CYCLE:    27 TIME:   0.020 TIME LEFT:  2.00D  GRAD.:     6.051 HEAT: -62.68671
 CYCLE:    28 TIME:   0.023 TIME LEFT:  2.00D  GRAD.:     6.325 HEAT: -62.73356
 CYCLE:    29 TIME:   0.020 TIME LEFT:  2.00D  GRAD.:     7.551 HEAT: -62.76567
 CYCLE:    30 TIME:   0.023 TIME LEFT:  2.00D  GRAD.:     4.367 HEAT: -62.79579
 CYCLE:    31 TIME:   0.020 TIME LEFT:  2.00D  GRAD.:     3.718 HEAT: -62.81009
 CYCLE:    32 TIME:   0.023 TIME LEFT:  2.00D  GRAD.:     3.413 HEAT: -62.82131
 CYCLE:    33 TIME:   0.023 TIME LEFT:  2.00D  GRAD.:     3.943 HEAT: -62.83216
 CYCLE:    34 TIME:   0.020 TIME LEFT:  2.00D  GRAD.:     3.328 HEAT: -62.84036
 CYCLE:    35 TIME:   0.023 TIME LEFT:  2.00D  GRAD.:     2.394 HEAT: -62.84589
 CYCLE:    36 TIME:   0.020 TIME LEFT:  2.00D  GRAD.:     2.406 HEAT: -62.85390
 CYCLE:    37 TIME:   0.020 TIME LEFT:  2.00D  GRAD.:     4.601 HEAT: -62.86247
 CYCLE:    38 TIME:   0.023 TIME LEFT:  2.00D  GRAD.:     2.889 HEAT: -62.87096
 CYCLE:    39 TIME:   0.020 TIME LEFT:  2.00D  GRAD.:     1.973 HEAT: -62.87603
 CYCLE:    40 TIME:   0.023 TIME LEFT:  2.00D  GRAD.:     2.520 HEAT: -62.88230
 CYCLE:    41 TIME:   0.020 TIME LEFT:  2.00D  GRAD.:     3.668 HEAT: -62.88973
 CYCLE:    42 TIME:   0.020 TIME LEFT:  2.00D  GRAD.:     4.239 HEAT: -62.90318
 CYCLE:    43 TIME:   0.023 TIME LEFT:  2.00D  GRAD.:     5.594 HEAT: -62.91421
 CYCLE:    44 TIME:   0.020 TIME LEFT:  2.00D  GRAD.:     5.018 HEAT: -62.92676
 CYCLE:    45 TIME:   0.023 TIME LEFT:  2.00D  GRAD.:     5.282 HEAT: -62.93545
 CYCLE:    46 TIME:   0.020 TIME LEFT:  2.00D  GRAD.:     4.695 HEAT: -62.94575
 CYCLE:    47 TIME:   0.023 TIME LEFT:  2.00D  GRAD.:    10.574 HEAT: -62.95835
 CYCLE:    48 TIME:   0.023 TIME LEFT:  2.00D  GRAD.:     4.843 HEAT: -62.98542
 CYCLE:    49 TIME:   0.020 TIME LEFT:  2.00D  GRAD.:     6.864 HEAT: -62.98864
 CYCLE:    50 TIME:   0.023 TIME LEFT:  2.00D  GRAD.:     5.635 HEAT: -62.97826
 CYCLE:    51 TIME:   0.023 TIME LEFT:  2.00D  GRAD.:     9.499 HEAT: -62.98575
 CYCLE:    52 TIME:   0.020 TIME LEFT:  2.00D  GRAD.:     3.437 HEAT: -63.00483
 CYCLE:    53 TIME:   0.023 TIME LEFT:  2.00D  GRAD.:     3.779 HEAT: -63.00951
 CYCLE:    54 TIME:   0.023 TIME LEFT:  2.00D  GRAD.:     2.111 HEAT: -63.01590
 CYCLE:    55 TIME:   0.020 TIME LEFT:  2.00D  GRAD.:     2.756 HEAT: -63.02418
 CYCLE:    56 TIME:   0.023 TIME LEFT:  2.00D  GRAD.:     3.204 HEAT: -63.03783
 CYCLE:    57 TIME:   0.023 TIME LEFT:  2.00D  GRAD.:    14.814 HEAT: -63.02129
 CYCLE:    58 TIME:   0.020 TIME LEFT:  2.00D  GRAD.:     3.306 HEAT: -63.05783
 CYCLE:    59 TIME:   0.023 TIME LEFT:  2.00D  GRAD.:     2.251 HEAT: -63.06433
 CYCLE:    60 TIME:   0.023 TIME LEFT:  2.00D  GRAD.:     3.406 HEAT: -63.07793
 CYCLE:    61 TIME:   0.020 TIME LEFT:  2.00D  GRAD.:     4.563 HEAT: -63.08696
 CYCLE:    62 TIME:   0.023 TIME LEFT:  2.00D  GRAD.:     3.042 HEAT: -63.09744
 CYCLE:    63 TIME:   0.023 TIME LEFT:  2.00D  GRAD.:     3.393 HEAT: -63.10806
 CYCLE:    64 TIME:   0.020 TIME LEFT:  2.00D  GRAD.:     4.273 HEAT: -63.12094
 CYCLE:    65 TIME:   0.023 TIME LEFT:  2.00D  GRAD.:     5.357 HEAT: -63.13332
 CYCLE:    66 TIME:   0.020 TIME LEFT:  2.00D  GRAD.:     3.997 HEAT: -63.14420
 CYCLE:    67 TIME:   0.023 TIME LEFT:  2.00D  GRAD.:     3.640 HEAT: -63.15375
 CYCLE:    68 TIME:   0.020 TIME LEFT:  2.00D  GRAD.:     4.155 HEAT: -63.17093
 CYCLE:    69 TIME:   0.023 TIME LEFT:  2.00D  GRAD.:     5.489 HEAT: -63.18661
 CYCLE:    70 TIME:   0.023 TIME LEFT:  2.00D  GRAD.:     4.687 HEAT: -63.20266
 CYCLE:    71 TIME:   0.027 TIME LEFT:  2.00D  GRAD.:     6.532 HEAT: -63.21455
 CYCLE:    72 TIME:   0.020 TIME LEFT:  2.00D  GRAD.:     7.781 HEAT: -63.22583
 CYCLE:    73 TIME:   0.023 TIME LEFT:  2.00D  GRAD.:     4.350 HEAT: -63.24613
 CYCLE:    74 TIME:   0.023 TIME LEFT:  2.00D  GRAD.:     2.678 HEAT: -63.25605
 CYCLE:    75 TIME:   0.023 TIME LEFT:  2.00D  GRAD.:     3.943 HEAT: -63.26850
 CYCLE:    76 TIME:   0.020 TIME LEFT:  2.00D  GRAD.:     5.761 HEAT: -63.28703
 CYCLE:    77 TIME:   0.023 TIME LEFT:  2.00D  GRAD.:    19.001 HEAT: -63.24535
 CYCLE:    78 TIME:   0.023 TIME LEFT:  2.00D  GRAD.:     3.585 HEAT: -63.31956
 CYCLE:    79 TIME:   0.023 TIME LEFT:  2.00D  GRAD.:     2.986 HEAT: -63.32801
 CYCLE:    80 TIME:   0.023 TIME LEFT:  2.00D  GRAD.:     3.815 HEAT: -63.34450
 CYCLE:    81 TIME:   0.023 TIME LEFT:  2.00D  GRAD.:     7.562 HEAT: -63.35886
 CYCLE:    82 TIME:   0.020 TIME LEFT:  2.00D  GRAD.:     4.286 HEAT: -63.37747
 CYCLE:    83 TIME:   0.023 TIME LEFT:  2.00D  GRAD.:     4.120 HEAT: -63.38889
 CYCLE:    84 TIME:   0.020 TIME LEFT:  2.00D  GRAD.:     5.143 HEAT: -63.39948
 CYCLE:    85 TIME:   0.023 TIME LEFT:  2.00D  GRAD.:     3.435 HEAT: -63.41170
 CYCLE:    86 TIME:   0.023 TIME LEFT:  2.00D  GRAD.:     3.497 HEAT: -63.42124
 CYCLE:    87 TIME:   0.020 TIME LEFT:  2.00D  GRAD.:     3.234 HEAT: -63.43165
 CYCLE:    88 TIME:   0.020 TIME LEFT:  2.00D  GRAD.:     5.305 HEAT: -63.44194
 CYCLE:    89 TIME:   0.023 TIME LEFT:  2.00D  GRAD.:     2.737 HEAT: -63.45386
 CYCLE:    90 TIME:   0.023 TIME LEFT:  2.00D  GRAD.:     4.825 HEAT: -63.45607
 CYCLE:    91 TIME:   0.027 TIME LEFT:  2.00D  GRAD.:     3.868 HEAT: -63.46999
 CYCLE:    92 TIME:   0.023 TIME LEFT:  2.00D  GRAD.:     3.195 HEAT: -63.47904
 CYCLE:    93 TIME:   0.023 TIME LEFT:  2.00D  GRAD.:     2.305 HEAT: -63.48663
 CYCLE:    94 TIME:   0.023 TIME LEFT:  2.00D  GRAD.:     3.248 HEAT: -63.49551
 CYCLE:    95 TIME:   0.027 TIME LEFT:  2.00D  GRAD.:     4.349 HEAT: -63.50479
 CYCLE:    96 TIME:   0.020 TIME LEFT:  2.00D  GRAD.:     2.713 HEAT: -63.51405
 CYCLE:    97 TIME:   0.023 TIME LEFT:  2.00D  GRAD.:     2.544 HEAT: -63.51868
 CYCLE:    98 TIME:   0.020 TIME LEFT:  2.00D  GRAD.:     3.146 HEAT: -63.52500
 CYCLE:    99 TIME:   0.023 TIME LEFT:  2.00D  GRAD.:     2.206 HEAT: -63.53139
 CYCLE:   100 TIME:   0.020 TIME LEFT:  2.00D  GRAD.:     2.065 HEAT: -63.53642
 CYCLE:   101 TIME:   0.023 TIME LEFT:  2.00D  GRAD.:     2.186 HEAT: -63.53977
 CYCLE:   102 TIME:   0.023 TIME LEFT:  2.00D  GRAD.:     2.031 HEAT: -63.54287
 CYCLE:   103 TIME:   0.023 TIME LEFT:  2.00D  GRAD.:     1.541 HEAT: -63.54515
 CYCLE:   104 TIME:   0.023 TIME LEFT:  2.00D  GRAD.:     1.578 HEAT: -63.54787
 CYCLE:   105 TIME:   0.023 TIME LEFT:  2.00D  GRAD.:     2.020 HEAT: -63.55141
 CYCLE:   106 TIME:   0.023 TIME LEFT:  2.00D  GRAD.:     2.744 HEAT: -63.55355
 CYCLE:   107 TIME:   0.020 TIME LEFT:  2.00D  GRAD.:     1.249 HEAT: -63.55609
 CYCLE:   108 TIME:   0.020 TIME LEFT:  2.00D  GRAD.:     1.056 HEAT: -63.55755
 CYCLE:   109 TIME:   0.023 TIME LEFT:  2.00D  GRAD.:     1.300 HEAT: -63.55928
 CYCLE:   110 TIME:   0.027 TIME LEFT:  2.00D  GRAD.:     3.397 HEAT: -63.56016
 CYCLE:   111 TIME:   0.020 TIME LEFT:  2.00D  GRAD.:     1.170 HEAT: -63.56271
 CYCLE:   112 TIME:   0.023 TIME LEFT:  2.00D  GRAD.:     0.985 HEAT: -63.56383

 -------------------------------------------------------------------------------
 PM7 XYZ

 Lipophilicity_1105 - geometry optimisation


     HERBERTS TEST WAS SATISFIED IN BFGS                      
     SCF FIELD WAS ACHIEVED                                   


                              PM7 CALCULATION
                                                       MOPAC v23.0.3 Linux
                                                       Fri Jul 25 16:14:44 2025




          FINAL HEAT OF FORMATION =        -63.56383 KCAL/MOL =    -265.95107 KJ/MOL


          COSMO AREA              =        304.93 SQUARE ANGSTROMS
          COSMO VOLUME            =        340.98 CUBIC ANGSTROMS

          GRADIENT NORM           =          0.98535          =       0.15778 PER ATOM
          IONIZATION POTENTIAL    =          8.227180 EV
          HOMO LUMO ENERGIES (EV) =         -8.227  0.122
          NO. OF FILLED LEVELS    =         56
          MOLECULAR WEIGHT        =        290.3212         POINT GROUP:  C1  

          MOLECULAR DIMENSIONS (Angstroms)

            Atom       Atom       Distance
            H    39    H    30    11.36311
            H    35    H    24     8.24159
            H    29    H    26     5.23482


          SCF CALCULATIONS        =        113

          WALL-CLOCK TIME         =      2.535 SECONDS
          COMPUTATION TIME        =     50.541 SECONDS




   ATOM   CHEMICAL          X               Y               Z
  NUMBER   SYMBOL      (ANGSTROMS)     (ANGSTROMS)     (ANGSTROMS)

     1       C         -1.61871850  *  -3.98774753  *  -1.24967005  *
     2       O         -2.40093734  *  -2.89358540  *  -0.78727468  *
     3       C         -1.76496552  *  -1.69465778  *  -0.69678028  *
     4       C         -0.57342861  *  -1.37549951  *  -1.34426047  *
     5       C         -0.03650966  *  -0.09517280  *  -1.20019119  *
     6       C          1.26929943  *   0.24736479  *  -1.86281098  *
     7       C          2.27868159  *   0.69813714  *  -0.86413887  *
     8       C          2.80962121  *   1.98831449  *  -0.90132025  *
     9       N          3.73547830  *   2.43419385  *  -0.03439633  *
    10       C          4.15671367  *   1.54284537  *   0.92479883  *
    11       N          5.10588707  *   1.97080378  *   1.81170926  *
    12       N          3.69312876  *   0.26577956  *   1.07290722  *
    13       C          2.75904030  *  -0.15432612  *   0.17228824  *
    14       N          2.36348022  *  -1.46268569  *   0.31745390  *
    15       C         -0.69200100  *   0.86348267  *  -0.43443927  *
    16       C         -1.89030328  *   0.54201746  *   0.20804908  *
    17       O         -2.60628182  *   1.41276402  *   0.97182362  *
    18       C         -2.07513734  *   2.72253239  *   1.12863342  *
    19       C         -2.44113725  *  -0.74460922  *   0.10259611  *
    20       O         -3.56011476  *  -1.23927697  *   0.70100921  *
    21       C         -4.37943094  *  -0.32589269  *   1.41693491  *
    22       H         -1.39401156  *  -3.88162371  *  -2.31497292  *
    23       H         -0.70892349  *  -4.10804866  *  -0.65558271  *
    24       H         -2.29737979  *  -4.83601824  *  -1.08429220  *
    25       H         -0.08242141  *  -2.10196716  *  -1.98271512  *
    26       H          1.09094564  *   1.03338680  *  -2.63214507  *
    27       H          1.66905944  *  -0.61614498  *  -2.44102185  *
    28       H          2.49371085  *   2.72045343  *  -1.65766501  *
    29       H          5.44463998  *   1.35305722  *   2.51940573  *
    30       H          5.47178762  *   2.89777737  *   1.74647009  *
    31       H          1.50323617  *  -1.76450607  *  -0.10306167  *
    32       H          2.67639721  *  -1.97051932  *   1.12593098  *
    33       H         -0.25276411  *   1.85195440  *  -0.33458075  *
    34       H         -2.02422694  *   3.24216715  *   0.16704421  *
    35       H         -2.82139603  *   3.19363328  *   1.78188026  *
    36       H         -1.09761155  *   2.69488658  *   1.62086115  *
    37       H         -4.73822225  *   0.48024699  *   0.77028911  *
    38       H         -3.85255833  *   0.06672397  *   2.29306946  *
    39       H         -5.21269711  *  -0.97025495  *   1.72815776  *

                             CARTESIAN COORDINATES

   1    C       -1.618718504    -3.987747526    -1.249670050
   2    O       -2.400937343    -2.893585396    -0.787274680
   3    C       -1.764965522    -1.694657781    -0.696780285
   4    C       -0.573428607    -1.375499505    -1.344260468
   5    C       -0.036509661    -0.095172803    -1.200191191
   6    C        1.269299433     0.247364787    -1.862810978
   7    C        2.278681588     0.698137139    -0.864138865
   8    C        2.809621207     1.988314489    -0.901320248
   9    N        3.735478304     2.434193854    -0.034396328
  10    C        4.156713669     1.542845372     0.924798831
  11    N        5.105887067     1.970803778     1.811709264
  12    N        3.693128760     0.265779557     1.072907220
  13    C        2.759040305    -0.154326116     0.172288240
  14    N        2.363480221    -1.462685695     0.317453899
  15    C       -0.692001000     0.863482665    -0.434439271
  16    C       -1.890303276     0.542017463     0.208049075
  17    O       -2.606281817     1.412764022     0.971823623
  18    C       -2.075137342     2.722532393     1.128633424
  19    C       -2.441137252    -0.744609218     0.102596115
  20    O       -3.560114756    -1.239276970     0.701009205
  21    C       -4.379430937    -0.325892688     1.416934915
  22    H       -1.394011559    -3.881623707    -2.314972922
  23    H       -0.708923490    -4.108048661    -0.655582705
  24    H       -2.297379786    -4.836018242    -1.084292202
  25    H       -0.082421411    -2.101967163    -1.982715116
  26    H        1.090945637     1.033386799    -2.632145070
  27    H        1.669059445    -0.616144983    -2.441021852
  28    H        2.493710852     2.720453434    -1.657665013
  29    H        5.444639982     1.353057218     2.519405732
  30    H        5.471787618     2.897777374     1.746470092
  31    H        1.503236169    -1.764506065    -0.103061672
  32    H        2.676397214    -1.970519319     1.125930976
  33    H       -0.252764106     1.851954404    -0.334580747
  34    H       -2.024226940     3.242167152     0.167044207
  35    H       -2.821396027     3.193633278     1.781880261
  36    H       -1.097611552     2.694886583     1.620861146
  37    H       -4.738222254     0.480246987     0.770289110
  38    H       -3.852558328     0.066723966     2.293069455
  39    H       -5.212697108    -0.970254955     1.728157761


           Empirical Formula: C14 H18 N4 O3  =    39 atoms



      MOLECULAR POINT GROUP   :   C1  


                  EIGENVALUES  
 -38.14261 -37.17561 -35.65689 -33.47337 -31.03007 -30.62836 -30.08305 -29.87446
 -28.23345 -26.03874 -25.51108 -24.97869 -24.58862 -24.23012 -23.05989 -23.00721
 -21.86334 -20.75793 -20.25925 -19.21555 -18.59381 -18.16319 -17.33108 -17.13816
 -16.86630 -16.47027 -16.26308 -15.82635 -15.71377 -15.60792 -15.43653 -15.28077
 -15.09823 -14.97114 -14.78322 -14.47511 -14.12212 -13.88709 -13.65508 -13.35321
 -13.05123 -12.81011 -12.69970 -12.45304 -12.31400 -12.02474 -11.91185 -11.63163
 -11.45813 -11.24381 -10.94117 -10.01097  -9.72572  -9.04257  -8.75620  -8.22718
   0.12189   0.28090   0.30498   0.36242   1.39393   2.05089   2.07430   2.38797
   2.46682   2.48384   2.58827   3.27611   3.55998   3.65717   3.73117   3.88687
   4.17359   4.35575   4.49623   4.67568   4.75293   4.88620   5.01210   5.08407
   5.19437   5.20936   5.32606   5.35833   5.36887   5.44084   5.46839   5.57174
   5.73461   5.79755   5.86711   5.92672   5.94023   5.96287   5.96901   5.99785
   6.17471   6.29017   6.41112   6.48282   6.85724   6.99856


              NET ATOMIC CHARGES AND DIPOLE CONTRIBUTIONS

  ATOM NO.   TYPE          CHARGE      No. of ELECS.   s-Pop       p-Pop       
    1          C          -0.213152        4.2132     1.08697     3.12618
    2          O          -0.268016        6.2680     1.87072     4.39729
    3          C           0.207659        3.7923     1.08139     2.71096
    4          C          -0.359409        4.3594     1.07016     3.28925
    5          C           0.077936        3.9221     1.06650     2.85556
    6          C          -0.242787        4.2428     1.04509     3.19770
    7          C          -0.338952        4.3390     1.04736     3.29159
    8          C           0.170000        3.8300     1.09867     2.73133
    9          N          -0.564984        5.5650     1.76355     3.80143
   10          C           0.559618        3.4404     1.04281     2.39757
   11          N          -0.588117        5.5881     1.50889     4.07923
   12          N          -0.628901        5.6289     1.76593     3.86297
   13          C           0.474603        3.5254     1.05308     2.47231
   14          N          -0.584414        5.5844     1.53528     4.04913
   15          C          -0.315665        4.3157     1.07147     3.24419
   16          C           0.189216        3.8108     1.08073     2.73005
   17          O          -0.312803        6.3128     1.86803     4.44477
   18          C          -0.199026        4.1990     1.08714     3.11189
   19          C           0.028913        3.9711     1.07015     2.90094
   20          O          -0.266460        6.2665     1.86948     4.39698
   21          C          -0.205257        4.2053     1.08770     3.11755
   22          H           0.133104        0.8669     0.86690
   23          H           0.132235        0.8678     0.86776
   24          H           0.153561        0.8464     0.84644
   25          H           0.169847        0.8302     0.83015
   26          H           0.162077        0.8379     0.83792
   27          H           0.157277        0.8427     0.84272
   28          H           0.171009        0.8290     0.82899
   29          H           0.322906        0.6771     0.67709
   30          H           0.324042        0.6760     0.67596
   31          H           0.317279        0.6827     0.68272
   32          H           0.312890        0.6871     0.68711
   33          H           0.175041        0.8250     0.82496
   34          H           0.135097        0.8649     0.86490
   35          H           0.148189        0.8518     0.85181
   36          H           0.139268        0.8607     0.86073
   37          H           0.139213        0.8608     0.86079
   38          H           0.141184        0.8588     0.85882
   39          H           0.145781        0.8542     0.85422
 DIPOLE           X         Y         Z       TOTAL
 POINT-CHG.     0.576     0.425     0.116     0.725
 HYBRID        -0.795    -0.624     0.565     1.158
 SUM           -0.219    -0.199     0.680     0.742


          ATOMIC ORBITAL ELECTRON POPULATIONS

     Atom    s        px        py        pz   
    1  C   1.08697   1.08127   0.93133   1.11357
    2  O   1.87072   1.36561   1.21575   1.81593
    3  C   1.08139   0.93464   0.84104   0.93527
    4  C   1.07016   1.07441   1.06899   1.14585
    5  C   1.06650   0.95274   0.95332   0.94950
    6  C   1.04509   0.98620   1.16311   1.04838
    7  C   1.04736   1.16257   1.02735   1.10167
    8  C   1.09867   0.84490   0.96815   0.91829
    9  N   1.76355   1.26944   1.36259   1.16940
   10  C   1.04281   0.80265   0.79066   0.80425
   11  N   1.50889   1.44426   1.25649   1.37847
   12  N   1.76593   1.28983   1.21473   1.35840
   13  C   1.05308   0.82035   0.80490   0.84707
   14  N   1.53528   1.40813   1.19672   1.44428
   15  C   1.07147   1.03600   1.10542   1.10277
   16  C   1.08073   0.93060   0.88511   0.91434
   17  O   1.86803   1.48654   1.27597   1.68227
   18  C   1.08714   1.12611   0.84581   1.13997
   19  C   1.07015   0.92285   0.95905   1.01904
   20  O   1.86948   1.37521   1.34167   1.68010
   21  C   1.08770   1.01252   1.04409   1.06095
   22  H   0.86690
   23  H   0.86776
   24  H   0.84644
   25  H   0.83015
   26  H   0.83792
   27  H   0.84272
   28  H   0.82899
   29  H   0.67709
   30  H   0.67596
   31  H   0.68272
   32  H   0.68711
   33  H   0.82496
   34  H   0.86490
   35  H   0.85181
   36  H   0.86073
   37  H   0.86079
   38  H   0.85882
   39  H   0.85422

 **********************
 *                    *
 * JOB ENDED NORMALLY *
 *                    *
 **********************



 TOTAL JOB TIME:             2.54 SECONDS

 == MOPAC DONE ==
