 *******************************************************************************
 **                                                                           **
 **                              MOPAC v23.0.3                                **
 **                                                                           **
 *******************************************************************************
 **          Digital Object Identifier (DOI): 10.5281/zenodo.6511958          **
 **    Visit the DOI location for information on how to cite this program.    **
 *******************************************************************************

                              PM7 CALCULATION RESULTS

 *******************************************************************************
 *  CALCULATION DONE:                                Fri Jul 25 20:11:51 2025  *
 *  PM7        - The PM7 Hamiltonian to be used
 *  XYZ        - CARTESIAN COORDINATE SYSTEM TO BE USED
 *  T=         - A TIME OF 172800.0 SECONDS REQUESTED
 *  DUMP=N     - RESTART FILE WRITTEN EVERY 7200.0 SECONDS REQUESTED
 *******************************************************************************
PM7 XYZ

 Lipophilicity_595 - geometry optimisation
   ATOM   CHEMICAL          X               Y               Z
  NUMBER   SYMBOL      (ANGSTROMS)     (ANGSTROMS)     (ANGSTROMS)

     1       C         -8.39359800  *  -0.77730400  *   1.31531400  *
     2       C         -8.59004700  *  -0.39470700  *  -0.15863600  *
     3       O         -8.43350000  *   0.99172900  *  -0.34334700  *
     4       C         -7.66755900  *  -1.20380300  *  -1.10194600  *
     5       N         -6.24935300  *  -0.93201900  *  -0.82961700  *
     6       C         -5.40154100  *  -1.85317800  *  -0.12109200  *
     7       O         -5.90388400  *  -2.87397500  *   0.42429000  *
     8       C         -3.94390700  *  -1.61052000  *   0.00108000  *
     9       C         -3.25447600  *  -0.83127700  *  -0.94708900  *
    10       C         -1.87852800  *  -0.61570400  *  -0.82196000  *
    11       C         -1.17249700  *  -1.17936300  *   0.24650500  *
    12       C         -1.84638200  *  -1.96517300  *   1.18790100  *
    13       C         -3.22191700  *  -2.18286000  *   1.06461800  *
    14       C          0.24362800  *  -0.95691300  *   0.37324500  *
    15       C          1.42992500  *  -0.77035200  *   0.47950400  *
    16       C          2.84583700  *  -0.54728500  *   0.60644600  *
    17       C          3.40397100  *  -0.27786900  *   1.86222300  *
    18       C          4.77928200  *  -0.05833400  *   1.98562000  *
    19       C          5.60918100  *  -0.10931400  *   0.85424700  *
    20       C          7.08728500  *   0.14904000  *   0.99165000  *
    21       N          7.34175200  *   1.56092200  *   1.35982100  *
    22       C          7.04924500  *   2.49909300  *   0.25535100  *
    23       C          8.10774100  *   2.42013300  *  -0.87091500  *
    24       O          9.28407600  *   1.73340900  *  -0.48115200  *
    25       C          9.71158900  *   2.19008700  *   0.78306000  *
    26       C          8.71363900  *   1.76975300  *   1.88126700  *
    27       C          5.04388400  *  -0.37700400  *  -0.40363400  *
    28       C          3.66832100  *  -0.59588200  *  -0.52595900  *
    29       C         -7.98894100  *  -0.89572600  *  -2.54298400  *
    30       O         -7.47632100  *   0.11016200  *  -3.10564400  *
    31       N         -8.92039700  *  -1.70944100  *  -3.26196800  *
    32       O         -9.23496700  *  -1.42374200  *  -4.54801500  *
    33       H         -9.11605000  *  -0.21769000  *   1.94628000  *
    34       H         -8.57251800  *  -1.86442100  *   1.45669400  *
    35       H         -7.36513500  *  -0.53317100  *   1.65572800  *
    36       H         -9.64206100  *  -0.64793500  *  -0.41724000  *
    37       H         -7.55288100  *   1.25365300  *   0.03154900  *
    38       H         -7.87573500  *  -2.28490500  *  -0.94312700  *
    39       H         -5.87330200  *   0.01317700  *  -1.06644200  *
    40       H         -3.76723100  *  -0.40677100  *  -1.79974600  *
    41       H         -1.36424900  *  -0.01476000  *  -1.56249100  *
    42       H         -1.30892700  *  -2.40940500  *   2.01732500  *
    43       H         -3.72330800  *  -2.79046900  *   1.80793900  *
    44       H          2.77632400  *  -0.23539300  *   2.74435700  *
    45       H          5.19847400  *   0.15416900  *   2.96145500  *
    46       H          7.62810800  *  -0.13045400  *   0.06134200  *
    47       H          7.45910900  *  -0.53093000  *   1.78967500  *
    48       H          7.03980300  *   3.53286400  *   0.66587100  *
    49       H          6.03240300  *   2.32746000  *  -0.15861000  *
    50       H          8.36557100  *   3.44144900  *  -1.22903500  *
    51       H          7.66697400  *   1.87651500  *  -1.73336700  *
    52       H         10.70653200  *   1.74891800  *   1.00397200  *
    53       H          9.84459700  *   3.29713300  *   0.77896800  *
    54       H          9.09375600  *   0.86221300  *   2.40038700  *
    55       H          8.67960800  *   2.56856600  *   2.65287900  *
    56       H          5.66579300  *  -0.41033600  *  -1.28963200  *
    57       H          3.24618600  *  -0.80029600  *  -1.50265700  *
    58       H         -9.38928500  *  -2.51558600  *  -2.79085500  *
    59       H         -8.59409900  *  -1.95201800  *  -5.08940300  *



          CARTESIAN COORDINATES 

    NO.       ATOM           X           Y           Z

     1         C         -8.3936     -0.7773      1.3153
     2         C         -8.5900     -0.3947     -0.1586
     3         O         -8.4335      0.9917     -0.3433
     4         C         -7.6676     -1.2038     -1.1019
     5         N         -6.2494     -0.9320     -0.8296
     6         C         -5.4015     -1.8532     -0.1211
     7         O         -5.9039     -2.8740      0.4243
     8         C         -3.9439     -1.6105      0.0011
     9         C         -3.2545     -0.8313     -0.9471
    10         C         -1.8785     -0.6157     -0.8220
    11         C         -1.1725     -1.1794      0.2465
    12         C         -1.8464     -1.9652      1.1879
    13         C         -3.2219     -2.1829      1.0646
    14         C          0.2436     -0.9569      0.3732
    15         C          1.4299     -0.7704      0.4795
    16         C          2.8458     -0.5473      0.6064
    17         C          3.4040     -0.2779      1.8622
    18         C          4.7793     -0.0583      1.9856
    19         C          5.6092     -0.1093      0.8542
    20         C          7.0873      0.1490      0.9917
    21         N          7.3418      1.5609      1.3598
    22         C          7.0492      2.4991      0.2554
    23         C          8.1077      2.4201     -0.8709
    24         O          9.2841      1.7334     -0.4812
    25         C          9.7116      2.1901      0.7831
    26         C          8.7136      1.7698      1.8813
    27         C          5.0439     -0.3770     -0.4036
    28         C          3.6683     -0.5959     -0.5260
    29         C         -7.9889     -0.8957     -2.5430
    30         O         -7.4763      0.1102     -3.1056
    31         N         -8.9204     -1.7094     -3.2620
    32         O         -9.2350     -1.4237     -4.5480
    33         H         -9.1160     -0.2177      1.9463
    34         H         -8.5725     -1.8644      1.4567
    35         H         -7.3651     -0.5332      1.6557
    36         H         -9.6421     -0.6479     -0.4172
    37         H         -7.5529      1.2537      0.0315
    38         H         -7.8757     -2.2849     -0.9431
    39         H         -5.8733      0.0132     -1.0664
    40         H         -3.7672     -0.4068     -1.7997
    41         H         -1.3642     -0.0148     -1.5625
    42         H         -1.3089     -2.4094      2.0173
    43         H         -3.7233     -2.7905      1.8079
    44         H          2.7763     -0.2354      2.7444
    45         H          5.1985      0.1542      2.9615
    46         H          7.6281     -0.1305      0.0613
    47         H          7.4591     -0.5309      1.7897
    48         H          7.0398      3.5329      0.6659
    49         H          6.0324      2.3275     -0.1586
    50         H          8.3656      3.4414     -1.2290
    51         H          7.6670      1.8765     -1.7334
    52         H         10.7065      1.7489      1.0040
    53         H          9.8446      3.2971      0.7790
    54         H          9.0938      0.8622      2.4004
    55         H          8.6796      2.5686      2.6529
    56         H          5.6658     -0.4103     -1.2896
    57         H          3.2462     -0.8003     -1.5027
    58         H         -9.3893     -2.5156     -2.7909
    59         H         -8.5941     -1.9520     -5.0894

 General Reference for PM7:
 "Optimization of Parameters for Semiempirical Methods VI: More Modifications to the 
 NDDO Approximations and Re-optimization of Parameters", J. J. P. Stewart, J. Mol. Mod., 1:32, 19 (2013)
 https://link.springer.com/article/10.1007/s00894-012-1667-x

           Empirical Formula: C24 H27 N3 O5  =    59 atoms



      MOLECULAR POINT GROUP   :   C1  


      RHF CALCULATION, NO. OF DOUBLY OCCUPIED LEVELS = 84


          Geometry optimization using L-BFGS
 CYCLE:     1 TIME:   0.086 TIME LEFT:  2.00D  GRAD.:   252.802 HEAT: -52.98218
 CYCLE:     2 TIME:   0.047 TIME LEFT:  2.00D  GRAD.:   245.642 HEAT: -53.61203
 CYCLE:     3 TIME:   0.055 TIME LEFT:  2.00D  GRAD.:   113.443 HEAT: -65.76414
 CYCLE:     4 TIME:   0.055 TIME LEFT:  2.00D  GRAD.:   245.852 HEAT: -53.61424
 CYCLE:     5 TIME:   0.055 TIME LEFT:  2.00D  GRAD.:   113.642 HEAT: -65.76026
 CYCLE:     6 TIME:   0.047 TIME LEFT:  2.00D  GRAD.:    79.904 HEAT: -67.64416
 CYCLE:     7 TIME:   0.047 TIME LEFT:  2.00D  GRAD.:    61.465 HEAT: -68.67736
 CYCLE:     8 TIME:   0.055 TIME LEFT:  2.00D  GRAD.:    45.653 HEAT: -71.24666
 CYCLE:     9 TIME:   0.047 TIME LEFT:  2.00D  GRAD.:    36.026 HEAT: -72.49052
 CYCLE:    10 TIME:   0.055 TIME LEFT:  2.00D  GRAD.:    67.160 HEAT: -73.64883
 CYCLE:    11 TIME:   0.047 TIME LEFT:  2.00D  GRAD.:    41.260 HEAT: -74.57397
 CYCLE:    12 TIME:   0.047 TIME LEFT:  2.00D  GRAD.:    27.820 HEAT: -75.10981
 CYCLE:    13 TIME:   0.078 TIME LEFT:  2.00D  GRAD.:    23.256 HEAT: -76.12789
 CYCLE:    14 TIME:   0.062 TIME LEFT:  2.00D  GRAD.:    30.055 HEAT: -76.89360
 CYCLE:    15 TIME:   0.055 TIME LEFT:  2.00D  GRAD.:    55.569 HEAT: -77.08893
 CYCLE:    16 TIME:   0.047 TIME LEFT:  2.00D  GRAD.:    15.873 HEAT: -77.93894
 CYCLE:    17 TIME:   0.047 TIME LEFT:  2.00D  GRAD.:    12.996 HEAT: -78.13573
 CYCLE:    18 TIME:   0.055 TIME LEFT:  2.00D  GRAD.:    14.685 HEAT: -78.42047
 CYCLE:    19 TIME:   0.047 TIME LEFT:  2.00D  GRAD.:    37.415 HEAT: -78.50935
 CYCLE:    20 TIME:   0.047 TIME LEFT:  2.00D  GRAD.:    16.351 HEAT: -78.73709
 CYCLE:    21 TIME:   0.047 TIME LEFT:  2.00D  GRAD.:     9.312 HEAT: -78.81533
 CYCLE:    22 TIME:   0.047 TIME LEFT:  2.00D  GRAD.:    10.432 HEAT: -78.90022
 CYCLE:    23 TIME:   0.047 TIME LEFT:  2.00D  GRAD.:    18.096 HEAT: -79.05752
 CYCLE:    24 TIME:   0.047 TIME LEFT:  2.00D  GRAD.:    15.382 HEAT: -79.23949
 CYCLE:    25 TIME:   0.055 TIME LEFT:  2.00D  GRAD.:    35.500 HEAT: -79.39296
 CYCLE:    26 TIME:   0.055 TIME LEFT:  2.00D  GRAD.:    13.496 HEAT: -79.63918
 CYCLE:    27 TIME:   0.047 TIME LEFT:  2.00D  GRAD.:    12.212 HEAT: -79.77815
 CYCLE:    28 TIME:   0.047 TIME LEFT:  2.00D  GRAD.:    14.413 HEAT: -79.94055
 CYCLE:    29 TIME:   0.055 TIME LEFT:  2.00D  GRAD.:    37.662 HEAT: -79.92942
 CYCLE:    30 TIME:   0.039 TIME LEFT:  2.00D  GRAD.:    10.997 HEAT: -80.12819
 CYCLE:    31 TIME:   0.047 TIME LEFT:  2.00D  GRAD.:     6.704 HEAT: -80.17825
 CYCLE:    32 TIME:   0.055 TIME LEFT:  2.00D  GRAD.:     8.413 HEAT: -80.24187
 CYCLE:    33 TIME:   0.047 TIME LEFT:  2.00D  GRAD.:     9.043 HEAT: -80.32173
 CYCLE:    34 TIME:   0.055 TIME LEFT:  2.00D  GRAD.:    37.365 HEAT: -80.24897
 CYCLE:    35 TIME:   0.055 TIME LEFT:  2.00D  GRAD.:     8.749 HEAT: -80.43592
 CYCLE:    36 TIME:   0.039 TIME LEFT:  2.00D  GRAD.:     5.792 HEAT: -80.46331
 CYCLE:    37 TIME:   0.047 TIME LEFT:  2.00D  GRAD.:    13.210 HEAT: -80.51494
 CYCLE:    38 TIME:   0.047 TIME LEFT:  2.00D  GRAD.:     9.910 HEAT: -80.56306
 CYCLE:    39 TIME:   0.047 TIME LEFT:  2.00D  GRAD.:     8.959 HEAT: -80.61153
 CYCLE:    40 TIME:   0.047 TIME LEFT:  2.00D  GRAD.:     8.128 HEAT: -80.70592
 CYCLE:    41 TIME:   0.055 TIME LEFT:  2.00D  GRAD.:    13.321 HEAT: -80.77412
 CYCLE:    42 TIME:   0.047 TIME LEFT:  2.00D  GRAD.:     8.265 HEAT: -80.84358
 CYCLE:    43 TIME:   0.047 TIME LEFT:  2.00D  GRAD.:     6.106 HEAT: -80.88059
 CYCLE:    44 TIME:   0.047 TIME LEFT:  2.00D  GRAD.:     6.631 HEAT: -80.91130
 CYCLE:    45 TIME:   0.047 TIME LEFT:  2.00D  GRAD.:     5.291 HEAT: -80.94029
 CYCLE:    46 TIME:   0.047 TIME LEFT:  2.00D  GRAD.:     6.316 HEAT: -80.97503
 CYCLE:    47 TIME:   0.047 TIME LEFT:  2.00D  GRAD.:     6.319 HEAT: -81.00239
 CYCLE:    48 TIME:   0.047 TIME LEFT:  2.00D  GRAD.:    11.103 HEAT: -81.02692
 CYCLE:    49 TIME:   0.047 TIME LEFT:  2.00D  GRAD.:     6.598 HEAT: -81.06373
 CYCLE:    50 TIME:   0.062 TIME LEFT:  2.00D  GRAD.:     5.243 HEAT: -81.10561
 CYCLE:    51 TIME:   0.047 TIME LEFT:  2.00D  GRAD.:     8.538 HEAT: -81.13160
 CYCLE:    52 TIME:   0.047 TIME LEFT:  2.00D  GRAD.:     5.640 HEAT: -81.16409
 CYCLE:    53 TIME:   0.047 TIME LEFT:  2.00D  GRAD.:    11.007 HEAT: -81.17931
 CYCLE:    54 TIME:   0.047 TIME LEFT:  2.00D  GRAD.:     4.788 HEAT: -81.19841
 CYCLE:    55 TIME:   0.047 TIME LEFT:  2.00D  GRAD.:     4.374 HEAT: -81.20873
 CYCLE:    56 TIME:   0.047 TIME LEFT:  2.00D  GRAD.:     5.096 HEAT: -81.22832
 CYCLE:    57 TIME:   0.047 TIME LEFT:  2.00D  GRAD.:     8.152 HEAT: -81.24777
 CYCLE:    58 TIME:   0.047 TIME LEFT:  2.00D  GRAD.:     6.228 HEAT: -81.26910
 CYCLE:    59 TIME:   0.047 TIME LEFT:  2.00D  GRAD.:     4.263 HEAT: -81.28596
 CYCLE:    60 TIME:   0.047 TIME LEFT:  2.00D  GRAD.:     4.605 HEAT: -81.30506
 CYCLE:    61 TIME:   0.047 TIME LEFT:  2.00D  GRAD.:     5.657 HEAT: -81.32565
 CYCLE:    62 TIME:   0.047 TIME LEFT:  2.00D  GRAD.:     8.721 HEAT: -81.34576
 CYCLE:    63 TIME:   0.055 TIME LEFT:  2.00D  GRAD.:     4.466 HEAT: -81.37354
 CYCLE:    64 TIME:   0.055 TIME LEFT:  2.00D  GRAD.:     4.914 HEAT: -81.39279
 CYCLE:    65 TIME:   0.039 TIME LEFT:  2.00D  GRAD.:     7.731 HEAT: -81.41675
 CYCLE:    66 TIME:   0.047 TIME LEFT:  2.00D  GRAD.:     9.282 HEAT: -81.43305
 CYCLE:    67 TIME:   0.047 TIME LEFT:  2.00D  GRAD.:     5.052 HEAT: -81.45070
 CYCLE:    68 TIME:   0.047 TIME LEFT:  2.00D  GRAD.:     4.300 HEAT: -81.46258
 CYCLE:    69 TIME:   0.047 TIME LEFT:  2.00D  GRAD.:     4.248 HEAT: -81.47287
 CYCLE:    70 TIME:   0.047 TIME LEFT:  2.00D  GRAD.:     9.349 HEAT: -81.48571
 CYCLE:    71 TIME:   0.047 TIME LEFT:  2.00D  GRAD.:     3.364 HEAT: -81.50067
 CYCLE:    72 TIME:   0.047 TIME LEFT:  2.00D  GRAD.:     3.370 HEAT: -81.50664
 CYCLE:    73 TIME:   0.047 TIME LEFT:  2.00D  GRAD.:     3.944 HEAT: -81.52105
 CYCLE:    74 TIME:   0.047 TIME LEFT:  2.00D  GRAD.:    11.652 HEAT: -81.52959
 CYCLE:    75 TIME:   0.047 TIME LEFT:  2.00D  GRAD.:     4.299 HEAT: -81.55109
 CYCLE:    76 TIME:   0.047 TIME LEFT:  2.00D  GRAD.:     2.975 HEAT: -81.55995
 CYCLE:    77 TIME:   0.055 TIME LEFT:  2.00D  GRAD.:     3.467 HEAT: -81.56959
 CYCLE:    78 TIME:   0.047 TIME LEFT:  2.00D  GRAD.:     4.692 HEAT: -81.58604
 CYCLE:    79 TIME:   0.047 TIME LEFT:  2.00D  GRAD.:     8.044 HEAT: -81.59880
 CYCLE:    80 TIME:   0.047 TIME LEFT:  2.00D  GRAD.:     5.783 HEAT: -81.61840
 CYCLE:    81 TIME:   0.047 TIME LEFT:  2.00D  GRAD.:     4.223 HEAT: -81.62910
 CYCLE:    82 TIME:   0.047 TIME LEFT:  2.00D  GRAD.:     3.772 HEAT: -81.63757
 CYCLE:    83 TIME:   0.047 TIME LEFT:  2.00D  GRAD.:     4.065 HEAT: -81.64994
 CYCLE:    84 TIME:   0.047 TIME LEFT:  2.00D  GRAD.:     5.226 HEAT: -81.66495
 CYCLE:    85 TIME:   0.047 TIME LEFT:  2.00D  GRAD.:     5.122 HEAT: -81.67512
 CYCLE:    86 TIME:   0.047 TIME LEFT:  2.00D  GRAD.:     4.397 HEAT: -81.68343
 CYCLE:    87 TIME:   0.047 TIME LEFT:  2.00D  GRAD.:     4.489 HEAT: -81.69236
 CYCLE:    88 TIME:   0.047 TIME LEFT:  2.00D  GRAD.:     4.221 HEAT: -81.70789
 CYCLE:    89 TIME:   0.047 TIME LEFT:  2.00D  GRAD.:    11.149 HEAT: -81.70939
 CYCLE:    90 TIME:   0.047 TIME LEFT:  2.00D  GRAD.:     3.514 HEAT: -81.73165
 CYCLE:    91 TIME:   0.047 TIME LEFT:  2.00D  GRAD.:     2.878 HEAT: -81.73846
 CYCLE:    92 TIME:   0.047 TIME LEFT:  2.00D  GRAD.:     3.615 HEAT: -81.74914
 CYCLE:    93 TIME:   0.047 TIME LEFT:  2.00D  GRAD.:     4.593 HEAT: -81.76475
 CYCLE:    94 TIME:   0.055 TIME LEFT:  2.00D  GRAD.:     6.547 HEAT: -81.77516
 CYCLE:    95 TIME:   0.047 TIME LEFT:  2.00D  GRAD.:     4.745 HEAT: -81.78741
 CYCLE:    96 TIME:   0.047 TIME LEFT:  2.00D  GRAD.:     3.837 HEAT: -81.79546
 CYCLE:    97 TIME:   0.047 TIME LEFT:  2.00D  GRAD.:     4.328 HEAT: -81.80550
 CYCLE:    98 TIME:   0.047 TIME LEFT:  2.00D  GRAD.:     4.361 HEAT: -81.81531
 CYCLE:    99 TIME:   0.047 TIME LEFT:  2.00D  GRAD.:     3.534 HEAT: -81.82499
 CYCLE:   100 TIME:   0.047 TIME LEFT:  2.00D  GRAD.:     6.856 HEAT: -81.83647
 CYCLE:   101 TIME:   0.055 TIME LEFT:  2.00D  GRAD.:     7.122 HEAT: -81.84061
 CYCLE:   102 TIME:   0.047 TIME LEFT:  2.00D  GRAD.:     3.537 HEAT: -81.85049
 CYCLE:   103 TIME:   0.047 TIME LEFT:  2.00D  GRAD.:     4.225 HEAT: -81.84806
 CYCLE:   104 TIME:   0.047 TIME LEFT:  2.00D  GRAD.:     2.368 HEAT: -81.86178
 CYCLE:   105 TIME:   0.055 TIME LEFT:  2.00D  GRAD.:     5.568 HEAT: -81.86377
 CYCLE:   106 TIME:   0.055 TIME LEFT:  2.00D  GRAD.:     5.110 HEAT: -81.87148
 CYCLE:   107 TIME:   0.047 TIME LEFT:  2.00D  GRAD.:     3.137 HEAT: -81.88489
 CYCLE:   108 TIME:   0.055 TIME LEFT:  2.00D  GRAD.:     6.695 HEAT: -81.90086
 CYCLE:   109 TIME:   0.047 TIME LEFT:  2.00D  GRAD.:     5.896 HEAT: -81.91373
 CYCLE:   110 TIME:   0.039 TIME LEFT:  2.00D  GRAD.:     4.083 HEAT: -81.93128
 CYCLE:   111 TIME:   0.055 TIME LEFT:  2.00D  GRAD.:     5.114 HEAT: -81.94487
 CYCLE:   112 TIME:   0.047 TIME LEFT:  2.00D  GRAD.:    10.459 HEAT: -81.95135
 CYCLE:   113 TIME:   0.047 TIME LEFT:  2.00D  GRAD.:     5.229 HEAT: -81.97319
 CYCLE:   114 TIME:   0.047 TIME LEFT:  2.00D  GRAD.:     5.207 HEAT: -81.99268
 CYCLE:   115 TIME:   0.047 TIME LEFT:  2.00D  GRAD.:     6.257 HEAT: -82.00676
 CYCLE:   116 TIME:   0.047 TIME LEFT:  2.00D  GRAD.:     8.466 HEAT: -82.02477
 CYCLE:   117 TIME:   0.047 TIME LEFT:  2.00D  GRAD.:    10.845 HEAT: -82.03780
 CYCLE:   118 TIME:   0.055 TIME LEFT:  2.00D  GRAD.:     5.058 HEAT: -82.05460
 CYCLE:   119 TIME:   0.047 TIME LEFT:  2.00D  GRAD.:     3.985 HEAT: -82.06520
 CYCLE:   120 TIME:   0.047 TIME LEFT:  2.00D  GRAD.:     3.852 HEAT: -82.07597
 CYCLE:   121 TIME:   0.047 TIME LEFT:  2.00D  GRAD.:     5.722 HEAT: -82.08169
 CYCLE:   122 TIME:   0.055 TIME LEFT:  2.00D  GRAD.:    21.814 HEAT: -82.02545
 CYCLE:   123 TIME:   0.055 TIME LEFT:  2.00D  GRAD.:     5.426 HEAT: -82.10941
 CYCLE:   124 TIME:   0.055 TIME LEFT:  2.00D  GRAD.:     6.487 HEAT: -82.10083
 CYCLE:   125 TIME:   0.047 TIME LEFT:  2.00D  GRAD.:     5.003 HEAT: -82.13168
 CYCLE:   126 TIME:   0.047 TIME LEFT:  2.00D  GRAD.:     9.750 HEAT: -82.12925
 CYCLE:   127 TIME:   0.047 TIME LEFT:  2.00D  GRAD.:     2.381 HEAT: -82.14463
 CYCLE:   128 TIME:   0.055 TIME LEFT:  2.00D  GRAD.:     2.803 HEAT: -82.14992
 CYCLE:   129 TIME:   0.047 TIME LEFT:  2.00D  GRAD.:     3.603 HEAT: -82.15791
 CYCLE:   130 TIME:   0.055 TIME LEFT:  2.00D  GRAD.:    13.091 HEAT: -82.16498
 CYCLE:   131 TIME:   0.047 TIME LEFT:  2.00D  GRAD.:     4.037 HEAT: -82.18675
 CYCLE:   132 TIME:   0.047 TIME LEFT:  2.00D  GRAD.:     2.628 HEAT: -82.19282
 CYCLE:   133 TIME:   0.039 TIME LEFT:  2.00D  GRAD.:     3.130 HEAT: -82.19912
 CYCLE:   134 TIME:   0.062 TIME LEFT:  2.00D  GRAD.:     8.049 HEAT: -82.20761
 CYCLE:   135 TIME:   0.047 TIME LEFT:  2.00D  GRAD.:     8.232 HEAT: -82.21480
 CYCLE:   136 TIME:   0.047 TIME LEFT:  2.00D  GRAD.:     2.950 HEAT: -82.22814
 CYCLE:   137 TIME:   0.055 TIME LEFT:  2.00D  GRAD.:     2.470 HEAT: -82.23594
 CYCLE:   138 TIME:   0.055 TIME LEFT:  2.00D  GRAD.:     6.627 HEAT: -82.24400
 CYCLE:   139 TIME:   0.047 TIME LEFT:  2.00D  GRAD.:     8.505 HEAT: -82.25645
 CYCLE:   140 TIME:   0.047 TIME LEFT:  2.00D  GRAD.:     3.291 HEAT: -82.26641
 CYCLE:   141 TIME:   0.047 TIME LEFT:  2.00D  GRAD.:     2.981 HEAT: -82.27470
 CYCLE:   142 TIME:   0.055 TIME LEFT:  2.00D  GRAD.:     4.591 HEAT: -82.28603
 CYCLE:   143 TIME:   0.062 TIME LEFT:  2.00D  GRAD.:    25.265 HEAT: -82.04341
 CYCLE:   144 TIME:   0.047 TIME LEFT:  2.00D  GRAD.:    29.436 HEAT: -82.16785
 CYCLE:   145 TIME:   0.055 TIME LEFT:  2.00D  GRAD.:    12.679 HEAT: -82.27396
 CYCLE:   146 TIME:   0.055 TIME LEFT:  2.00D  GRAD.:    15.571 HEAT: -82.29676
 CYCLE:   147 TIME:   0.055 TIME LEFT:  2.00D  GRAD.:   100.918 HEAT: -80.73137
 CYCLE:   148 TIME:   0.055 TIME LEFT:  2.00D  GRAD.:    27.469 HEAT: -82.18336
 CYCLE:   149 TIME:   0.039 TIME LEFT:  2.00D  GRAD.:     3.348 HEAT: -82.33523
 CYCLE:   150 TIME:   0.055 TIME LEFT:  2.00D  GRAD.:     3.111 HEAT: -82.33981
 CYCLE:   151 TIME:   0.047 TIME LEFT:  2.00D  GRAD.:     4.073 HEAT: -82.34514
 CYCLE:   152 TIME:   0.055 TIME LEFT:  2.00D  GRAD.:     6.748 HEAT: -82.35885
 CYCLE:   153 TIME:   0.047 TIME LEFT:  2.00D  GRAD.:    18.729 HEAT: -82.34582
 CYCLE:   154 TIME:   0.047 TIME LEFT:  2.00D  GRAD.:     3.672 HEAT: -82.37981
 CYCLE:   155 TIME:   0.047 TIME LEFT:  2.00D  GRAD.:     2.621 HEAT: -82.38521
 CYCLE:   156 TIME:   0.055 TIME LEFT:  2.00D  GRAD.:     9.296 HEAT: -82.36549
 CYCLE:   157 TIME:   0.055 TIME LEFT:  2.00D  GRAD.:     3.627 HEAT: -82.40219
 CYCLE:   158 TIME:   0.039 TIME LEFT:  2.00D  GRAD.:    10.135 HEAT: -82.40069
 CYCLE:   159 TIME:   0.047 TIME LEFT:  2.00D  GRAD.:     4.025 HEAT: -82.41442
 CYCLE:   160 TIME:   0.055 TIME LEFT:  2.00D  GRAD.:     2.888 HEAT: -82.42525
 CYCLE:   161 TIME:   0.047 TIME LEFT:  2.00D  GRAD.:     8.881 HEAT: -82.43634
 CYCLE:   162 TIME:   0.055 TIME LEFT:  2.00D  GRAD.:     5.196 HEAT: -82.45464
 CYCLE:   163 TIME:   0.047 TIME LEFT:  2.00D  GRAD.:     7.551 HEAT: -82.46605
 CYCLE:   164 TIME:   0.047 TIME LEFT:  2.00D  GRAD.:     4.095 HEAT: -82.48164
 CYCLE:   165 TIME:   0.055 TIME LEFT:  2.00D  GRAD.:    13.143 HEAT: -82.48972
 CYCLE:   166 TIME:   0.055 TIME LEFT:  2.00D  GRAD.:     5.923 HEAT: -82.50838
 CYCLE:   167 TIME:   0.039 TIME LEFT:  2.00D  GRAD.:     3.222 HEAT: -82.51779
 CYCLE:   168 TIME:   0.055 TIME LEFT:  2.00D  GRAD.:     6.224 HEAT: -82.53716
 CYCLE:   169 TIME:   0.055 TIME LEFT:  2.00D  GRAD.:    15.105 HEAT: -82.54011
 CYCLE:   170 TIME:   0.047 TIME LEFT:  2.00D  GRAD.:     8.545 HEAT: -82.56988
 CYCLE:   171 TIME:   0.047 TIME LEFT:  2.00D  GRAD.:     4.868 HEAT: -82.58234
 CYCLE:   172 TIME:   0.047 TIME LEFT:  2.00D  GRAD.:     6.419 HEAT: -82.60371
 CYCLE:   173 TIME:   0.055 TIME LEFT:  2.00D  GRAD.:    16.399 HEAT: -82.62458
 CYCLE:   174 TIME:   0.055 TIME LEFT:  2.00D  GRAD.:     7.745 HEAT: -82.62588
 CYCLE:   175 TIME:   0.047 TIME LEFT:  2.00D  GRAD.:     6.379 HEAT: -82.65905
 CYCLE:   176 TIME:   0.055 TIME LEFT:  2.00D  GRAD.:    11.733 HEAT: -82.65383
 CYCLE:   177 TIME:   0.055 TIME LEFT:  2.00D  GRAD.:    21.036 HEAT: -82.61797
 CYCLE:   178 TIME:   0.047 TIME LEFT:  2.00D  GRAD.:     7.247 HEAT: -82.70200
 CYCLE:   179 TIME:   0.047 TIME LEFT:  2.00D  GRAD.:     3.175 HEAT: -82.71968
 CYCLE:   180 TIME:   0.055 TIME LEFT:  2.00D  GRAD.:     9.681 HEAT: -82.71101
 CYCLE:   181 TIME:   0.047 TIME LEFT:  2.00D  GRAD.:     4.085 HEAT: -82.74477
 CYCLE:   182 TIME:   0.047 TIME LEFT:  2.00D  GRAD.:     4.442 HEAT: -82.75396
 CYCLE:   183 TIME:   0.047 TIME LEFT:  2.00D  GRAD.:     3.970 HEAT: -82.76544
 CYCLE:   184 TIME:   0.047 TIME LEFT:  2.00D  GRAD.:     6.526 HEAT: -82.78930
 CYCLE:   185 TIME:   0.055 TIME LEFT:  2.00D  GRAD.:    12.986 HEAT: -82.79847
 CYCLE:   186 TIME:   0.055 TIME LEFT:  2.00D  GRAD.:    16.134 HEAT: -82.76944
 CYCLE:   187 TIME:   0.047 TIME LEFT:  2.00D  GRAD.:     4.943 HEAT: -82.84165
 CYCLE:   188 TIME:   0.047 TIME LEFT:  2.00D  GRAD.:     5.021 HEAT: -82.85812
 CYCLE:   189 TIME:   0.055 TIME LEFT:  2.00D  GRAD.:    10.263 HEAT: -82.80867
 CYCLE:   190 TIME:   0.055 TIME LEFT:  2.00D  GRAD.:     7.639 HEAT: -82.89215
 CYCLE:   191 TIME:   0.047 TIME LEFT:  2.00D  GRAD.:     8.391 HEAT: -82.90694
 CYCLE:   192 TIME:   0.047 TIME LEFT:  2.00D  GRAD.:     4.793 HEAT: -82.92287
 CYCLE:   193 TIME:   0.047 TIME LEFT:  2.00D  GRAD.:     5.303 HEAT: -82.95061
 CYCLE:   194 TIME:   0.047 TIME LEFT:  2.00D  GRAD.:     8.467 HEAT: -82.97504
 CYCLE:   195 TIME:   0.055 TIME LEFT:  2.00D  GRAD.:     9.061 HEAT: -83.01136
 CYCLE:   196 TIME:   0.047 TIME LEFT:  2.00D  GRAD.:    33.088 HEAT: -82.87479
 CYCLE:   197 TIME:   0.055 TIME LEFT:  2.00D  GRAD.:     6.700 HEAT: -83.04720
 CYCLE:   198 TIME:   0.047 TIME LEFT:  2.00D  GRAD.:     4.020 HEAT: -83.06625
 CYCLE:   199 TIME:   0.047 TIME LEFT:  2.00D  GRAD.:     5.326 HEAT: -83.08671
 CYCLE:   200 TIME:   0.055 TIME LEFT:  2.00D  GRAD.:     9.925 HEAT: -83.11461
 CYCLE:   201 TIME:   0.047 TIME LEFT:  2.00D  GRAD.:     9.844 HEAT: -83.15203
 CYCLE:   202 TIME:   0.047 TIME LEFT:  2.00D  GRAD.:     4.788 HEAT: -83.17389
 CYCLE:   203 TIME:   0.047 TIME LEFT:  2.00D  GRAD.:     4.537 HEAT: -83.18113
 CYCLE:   204 TIME:   0.047 TIME LEFT:  2.00D  GRAD.:     4.903 HEAT: -83.19524
 CYCLE:   205 TIME:   0.047 TIME LEFT:  2.00D  GRAD.:     6.309 HEAT: -83.21714
 CYCLE:   206 TIME:   0.047 TIME LEFT:  2.00D  GRAD.:     6.309 HEAT: -83.23403
 CYCLE:   207 TIME:   0.047 TIME LEFT:  2.00D  GRAD.:     7.788 HEAT: -83.24579
 CYCLE:   208 TIME:   0.047 TIME LEFT:  2.00D  GRAD.:     4.068 HEAT: -83.25684
 CYCLE:   209 TIME:   0.047 TIME LEFT:  2.00D  GRAD.:     3.452 HEAT: -83.26346
 CYCLE:   210 TIME:   0.047 TIME LEFT:  2.00D  GRAD.:     3.962 HEAT: -83.27007
 CYCLE:   211 TIME:   0.047 TIME LEFT:  2.00D  GRAD.:     4.309 HEAT: -83.28859
 CYCLE:   212 TIME:   0.055 TIME LEFT:  2.00D  GRAD.:     9.571 HEAT: -83.29365
 CYCLE:   213 TIME:   0.047 TIME LEFT:  2.00D  GRAD.:     3.876 HEAT: -83.31380
 CYCLE:   214 TIME:   0.047 TIME LEFT:  2.00D  GRAD.:     3.752 HEAT: -83.32585
 CYCLE:   215 TIME:   0.039 TIME LEFT:  2.00D  GRAD.:     4.844 HEAT: -83.33567
 CYCLE:   216 TIME:   0.055 TIME LEFT:  2.00D  GRAD.:    16.187 HEAT: -83.32959
 CYCLE:   217 TIME:   0.047 TIME LEFT:  2.00D  GRAD.:     4.442 HEAT: -83.35532
 CYCLE:   218 TIME:   0.047 TIME LEFT:  2.00D  GRAD.:     2.963 HEAT: -83.36230
 CYCLE:   219 TIME:   0.047 TIME LEFT:  2.00D  GRAD.:     3.612 HEAT: -83.37148
 CYCLE:   220 TIME:   0.047 TIME LEFT:  2.00D  GRAD.:     5.437 HEAT: -83.39059
 CYCLE:   221 TIME:   0.047 TIME LEFT:  2.00D  GRAD.:    10.245 HEAT: -83.39123
 CYCLE:   222 TIME:   0.047 TIME LEFT:  2.00D  GRAD.:     3.375 HEAT: -83.40986
 CYCLE:   223 TIME:   0.047 TIME LEFT:  2.00D  GRAD.:     2.638 HEAT: -83.41505
 CYCLE:   224 TIME:   0.047 TIME LEFT:  2.00D  GRAD.:     3.378 HEAT: -83.42343
 CYCLE:   225 TIME:   0.047 TIME LEFT:  2.00D  GRAD.:     9.042 HEAT: -83.43540
 CYCLE:   226 TIME:   0.047 TIME LEFT:  2.00D  GRAD.:     5.202 HEAT: -83.45262
 CYCLE:   227 TIME:   0.047 TIME LEFT:  2.00D  GRAD.:     4.050 HEAT: -83.47172
 CYCLE:   228 TIME:   0.047 TIME LEFT:  2.00D  GRAD.:     4.140 HEAT: -83.48514
 CYCLE:   229 TIME:   0.047 TIME LEFT:  2.00D  GRAD.:     9.957 HEAT: -83.49435
 CYCLE:   230 TIME:   0.039 TIME LEFT:  2.00D  GRAD.:     3.666 HEAT: -83.51175
 CYCLE:   231 TIME:   0.047 TIME LEFT:  2.00D  GRAD.:     3.032 HEAT: -83.52154
 CYCLE:   232 TIME:   0.055 TIME LEFT:  2.00D  GRAD.:     5.749 HEAT: -83.53033
 CYCLE:   233 TIME:   0.039 TIME LEFT:  2.00D  GRAD.:     4.824 HEAT: -83.53812
 CYCLE:   234 TIME:   0.047 TIME LEFT:  2.00D  GRAD.:     3.412 HEAT: -83.54485
 CYCLE:   235 TIME:   0.047 TIME LEFT:  2.00D  GRAD.:     3.456 HEAT: -83.55293
 CYCLE:   236 TIME:   0.047 TIME LEFT:  2.00D  GRAD.:     4.654 HEAT: -83.55661
 CYCLE:   237 TIME:   0.047 TIME LEFT:  2.00D  GRAD.:     2.839 HEAT: -83.56116
 CYCLE:   238 TIME:   0.047 TIME LEFT:  2.00D  GRAD.:     2.090 HEAT: -83.56587
 CYCLE:   239 TIME:   0.047 TIME LEFT:  2.00D  GRAD.:     2.196 HEAT: -83.56852
 CYCLE:   240 TIME:   0.047 TIME LEFT:  2.00D  GRAD.:     5.166 HEAT: -83.57280
 CYCLE:   241 TIME:   0.047 TIME LEFT:  2.00D  GRAD.:     2.817 HEAT: -83.57924
 CYCLE:   242 TIME:   0.047 TIME LEFT:  2.00D  GRAD.:     2.318 HEAT: -83.58364
 CYCLE:   243 TIME:   0.047 TIME LEFT:  2.00D  GRAD.:     2.522 HEAT: -83.58960
 CYCLE:   244 TIME:   0.055 TIME LEFT:  2.00D  GRAD.:     4.419 HEAT: -83.59100
 CYCLE:   245 TIME:   0.039 TIME LEFT:  2.00D  GRAD.:     1.795 HEAT: -83.59497
 CYCLE:   246 TIME:   0.047 TIME LEFT:  2.00D  GRAD.:     1.556 HEAT: -83.59743
 CYCLE:   247 TIME:   0.055 TIME LEFT:  2.00D  GRAD.:     2.195 HEAT: -83.60030
 CYCLE:   248 TIME:   0.047 TIME LEFT:  2.00D  GRAD.:     5.593 HEAT: -83.60223
 CYCLE:   249 TIME:   0.047 TIME LEFT:  2.00D  GRAD.:     2.252 HEAT: -83.60596
 CYCLE:   250 TIME:   0.047 TIME LEFT:  2.00D  GRAD.:     1.478 HEAT: -83.60759
 CYCLE:   251 TIME:   0.047 TIME LEFT:  2.00D  GRAD.:     1.384 HEAT: -83.60932
 CYCLE:   252 TIME:   0.047 TIME LEFT:  2.00D  GRAD.:     1.903 HEAT: -83.61130
 CYCLE:   253 TIME:   0.047 TIME LEFT:  2.00D  GRAD.:     2.080 HEAT: -83.61362
 CYCLE:   254 TIME:   0.055 TIME LEFT:  2.00D  GRAD.:     1.904 HEAT: -83.61572
 CYCLE:   255 TIME:   0.047 TIME LEFT:  2.00D  GRAD.:     1.917 HEAT: -83.61739
 CYCLE:   256 TIME:   0.055 TIME LEFT:  2.00D  GRAD.:     1.804 HEAT: -83.61898
 CYCLE:   257 TIME:   0.047 TIME LEFT:  2.00D  GRAD.:     1.283 HEAT: -83.61995
 CYCLE:   258 TIME:   0.047 TIME LEFT:  2.00D  GRAD.:     1.231 HEAT: -83.62214
 CYCLE:   259 TIME:   0.055 TIME LEFT:  2.00D  GRAD.:     1.733 HEAT: -83.62385
 CYCLE:   260 TIME:   0.047 TIME LEFT:  2.00D  GRAD.:     1.692 HEAT: -83.62630
 CYCLE:   261 TIME:   0.055 TIME LEFT:  2.00D  GRAD.:     3.183 HEAT: -83.62784
 CYCLE:   262 TIME:   0.047 TIME LEFT:  2.00D  GRAD.:     2.649 HEAT: -83.63056
 CYCLE:   263 TIME:   0.047 TIME LEFT:  2.00D  GRAD.:     1.561 HEAT: -83.63310
 CYCLE:   264 TIME:   0.047 TIME LEFT:  2.00D  GRAD.:     1.441 HEAT: -83.63442
 CYCLE:   265 TIME:   0.047 TIME LEFT:  2.00D  GRAD.:     1.766 HEAT: -83.63696
 CYCLE:   266 TIME:   0.055 TIME LEFT:  2.00D  GRAD.:     1.235 HEAT: -83.63850
 CYCLE:   267 TIME:   0.047 TIME LEFT:  2.00D  GRAD.:     1.351 HEAT: -83.63951
 CYCLE:   268 TIME:   0.047 TIME LEFT:  2.00D  GRAD.:     0.999 HEAT: -83.64085

 -------------------------------------------------------------------------------
 PM7 XYZ

 Lipophilicity_595 - geometry optimisation


     HERBERTS TEST WAS SATISFIED IN BFGS                      
     SCF FIELD WAS ACHIEVED                                   


                              PM7 CALCULATION
                                                       MOPAC v23.0.3 Linux
                                                       Fri Jul 25 20:12:04 2025




          FINAL HEAT OF FORMATION =        -83.64085 KCAL/MOL =    -349.95330 KJ/MOL


          COSMO AREA              =        463.76 SQUARE ANGSTROMS
          COSMO VOLUME            =        527.27 CUBIC ANGSTROMS

          GRADIENT NORM           =          0.99856          =       0.13000 PER ATOM
          IONIZATION POTENTIAL    =          8.956513 EV
          HOMO LUMO ENERGIES (EV) =         -8.957 -0.990
          NO. OF FILLED LEVELS    =         84
          MOLECULAR WEIGHT        =        437.4944         POINT GROUP:  C1  

          MOLECULAR DIMENSIONS (Angstroms)

            Atom       Atom       Distance
            H    58    H    53    20.52552
            H    59    H    33     6.76072
            H    50    O     7     4.75979


          SCF CALCULATIONS        =        269

          WALL-CLOCK TIME         =     13.195 SECONDS
          COMPUTATION TIME        =          4 MINUTES AND 23.180 SECONDS




   ATOM   CHEMICAL          X               Y               Z
  NUMBER   SYMBOL      (ANGSTROMS)     (ANGSTROMS)     (ANGSTROMS)

     1       C         -7.87557015  *  -0.78020003  *   1.27571429  *
     2       C         -8.44571503  *  -0.86088908  *  -0.12805447  *
     3       O         -8.84865732  *   0.40783481  *  -0.59236782  *
     4       C         -7.46860115  *  -1.49017299  *  -1.17023396  *
     5       N         -6.06790211  *  -1.18699283  *  -0.89000420  *
     6       C         -5.31373949  *  -2.09846444  *  -0.16511311  *
     7       O         -5.84828151  *  -3.04731291  *   0.37273092  *
     8       C         -3.86778608  *  -1.78394673  *  -0.04390500  *
     9       C         -3.09658797  *  -1.49868222  *  -1.17057950  *
    10       C         -1.74036788  *  -1.22779295  *  -1.02561823  *
    11       C         -1.15644520  *  -1.24513289  *   0.24977939  *
    12       C         -1.93621502  *  -1.54368410  *   1.37606962  *
    13       C         -3.29133176  *  -1.81866509  *   1.22618714  *
    14       C          0.21595860  *  -0.97586169  *   0.39161659  *
    15       C          1.40523281  *  -0.75179202  *   0.50283896  *
    16       C          2.78478676  *  -0.50592334  *   0.61551350  *
    17       C          3.30847544  *   0.08312039  *   1.77478751  *
    18       C          4.67521787  *   0.31487297  *   1.87606510  *
    19       C          5.52631781  *  -0.03443234  *   0.82476854  *
    20       C          7.01066024  *   0.18605935  *   0.93947963  *
    21       N          7.29734829  *   1.53261658  *   1.50391956  *
    22       C          6.84855152  *   2.62003124  *   0.61016367  *
    23       C          7.78280454  *   2.84797238  *  -0.59786210  *
    24       O          8.81201655  *   1.88026485  *  -0.64655077  *
    25       C          9.60456858  *   1.81794919  *   0.52254491  *
    26       C          8.73695077  *   1.69208585  *   1.79364335  *
    27       C          5.00557264  *  -0.61883188  *  -0.33164036  *
    28       C          3.63959352  *  -0.85654751  *  -0.43825459  *
    29       C         -7.76753891  *  -1.00188630  *  -2.59661606  *
    30       O         -6.88028229  *  -0.83496006  *  -3.40505142  *
    31       N         -9.11934327  *  -0.96332922  *  -2.97713044  *
    32       O         -9.33740990  *  -0.32198745  *  -4.20273350  *
    33       H         -8.61746820  *  -0.38356078  *   1.97989255  *
    34       H         -7.56529530  *  -1.77390163  *   1.63835341  *
    35       H         -6.99075713  *  -0.13412573  *   1.33055280  *
    36       H         -9.41020664  *  -1.42739583  *  -0.13931551  *
    37       H         -8.16994907  *   1.09109811  *  -0.42993793  *
    38       H         -7.62126228  *  -2.61336784  *  -1.14149888  *
    39       H         -5.63199352  *  -0.46736101  *  -1.45422237  *
    40       H         -3.54617096  *  -1.50118660  *  -2.16483263  *
    41       H         -1.12741586  *  -1.00335105  *  -1.89819470  *
    42       H         -1.47589573  *  -1.56613373  *   2.36278541  *
    43       H         -3.90324418  *  -2.07233838  *   2.09378828  *
    44       H          2.64273544  *   0.35578670  *   2.59201505  *
    45       H          5.09451917  *   0.77852425  *   2.77130252  *
    46       H          7.51664482  *   0.02250953  *  -0.03976976  *
    47       H          7.42983957  *  -0.57378813  *   1.64266957  *
    48       H          6.78364524  *   3.54144783  *   1.23056691  *
    49       H          5.81217907  *   2.40851257  *   0.27034085  *
    50       H          8.23056876  *   3.85500358  *  -0.59009246  *
    51       H          7.26878146  *   2.68298233  *  -1.56195535  *
    52       H         10.21304563  *   0.91491558  *   0.33679372  *
    53       H         10.26334038  *   2.70101329  *   0.55695884  *
    54       H          9.07796180  *   0.84337372  *   2.42154012  *
    55       H          8.84091160  *   2.60154724  *   2.42679667  *
    56       H          5.66738379  *  -0.88912268  *  -1.15296007  *
    57       H          3.23109758  *  -1.31679474  *  -1.33702727  *
    58       H         -9.79626487  *  -0.53730158  *  -2.34520506  *
    59       H         -8.80853029  *  -0.85786788  *  -4.87284469  *

                             CARTESIAN COORDINATES

   1    C       -7.875570153    -0.780200028     1.275714291
   2    C       -8.445715029    -0.860889081    -0.128054471
   3    O       -8.848657324     0.407834810    -0.592367822
   4    C       -7.468601151    -1.490172989    -1.170233960
   5    N       -6.067902110    -1.186992828    -0.890004196
   6    C       -5.313739493    -2.098464436    -0.165113106
   7    O       -5.848281508    -3.047312910     0.372730922
   8    C       -3.867786084    -1.783946730    -0.043904996
   9    C       -3.096587969    -1.498682223    -1.170579502
  10    C       -1.740367881    -1.227792954    -1.025618229
  11    C       -1.156445196    -1.245132891     0.249779392
  12    C       -1.936215017    -1.543684100     1.376069616
  13    C       -3.291331758    -1.818665086     1.226187138
  14    C        0.215958601    -0.975861686     0.391616585
  15    C        1.405232810    -0.751792022     0.502838957
  16    C        2.784786761    -0.505923339     0.615513505
  17    C        3.308475439     0.083120390     1.774787509
  18    C        4.675217868     0.314872965     1.876065103
  19    C        5.526317805    -0.034432343     0.824768544
  20    C        7.010660244     0.186059352     0.939479631
  21    N        7.297348291     1.532616584     1.503919564
  22    C        6.848551520     2.620031241     0.610163668
  23    C        7.782804538     2.847972380    -0.597862098
  24    O        8.812016545     1.880264850    -0.646550773
  25    C        9.604568583     1.817949191     0.522544912
  26    C        8.736950765     1.692085853     1.793643347
  27    C        5.005572641    -0.618831882    -0.331640363
  28    C        3.639593518    -0.856547508    -0.438254586
  29    C       -7.767538914    -1.001886296    -2.596616065
  30    O       -6.880282290    -0.834960062    -3.405051423
  31    N       -9.119343268    -0.963329219    -2.977130443
  32    O       -9.337409897    -0.321987455    -4.202733499
  33    H       -8.617468201    -0.383560778     1.979892548
  34    H       -7.565295296    -1.773901630     1.638353410
  35    H       -6.990757131    -0.134125732     1.330552799
  36    H       -9.410206640    -1.427395831    -0.139315505
  37    H       -8.169949072     1.091098114    -0.429937930
  38    H       -7.621262277    -2.613367842    -1.141498881
  39    H       -5.631993517    -0.467361007    -1.454222374
  40    H       -3.546170963    -1.501186595    -2.164832629
  41    H       -1.127415864    -1.003351045    -1.898194703
  42    H       -1.475895734    -1.566133727     2.362785411
  43    H       -3.903244184    -2.072338378     2.093788279
  44    H        2.642735435     0.355786700     2.592015046
  45    H        5.094519172     0.778524252     2.771302522
  46    H        7.516644824     0.022509525    -0.039769756
  47    H        7.429839566    -0.573788132     1.642669572
  48    H        6.783645244     3.541447830     1.230566907
  49    H        5.812179071     2.408512573     0.270340851
  50    H        8.230568762     3.855003578    -0.590092460
  51    H        7.268781464     2.682982325    -1.561955354
  52    H       10.213045627     0.914915581     0.336793717
  53    H       10.263340379     2.701013290     0.556958843
  54    H        9.077961804     0.843373724     2.421540124
  55    H        8.840911602     2.601547236     2.426796675
  56    H        5.667383787    -0.889122677    -1.152960073
  57    H        3.231097579    -1.316794743    -1.337027268
  58    H       -9.796264869    -0.537301584    -2.345205060
  59    H       -8.808530290    -0.857867881    -4.872844693


           Empirical Formula: C24 H27 N3 O5  =    59 atoms



      MOLECULAR POINT GROUP   :   C1  


                  EIGENVALUES  
 -37.14414 -35.93671 -35.41250 -31.18398 -30.81714 -30.75718 -30.40682 -30.20014
 -29.63770 -28.63032 -27.93530 -27.52115 -26.99196 -26.70581 -26.37064 -26.08034
 -25.93405 -25.19462 -24.76742 -23.58652 -22.64341 -22.43531 -21.79428 -21.61472
 -21.32656 -20.77556 -20.49705 -20.44695 -19.34870 -19.15566 -18.59534 -17.96748
 -17.47650 -17.45075 -17.35032 -17.10751 -17.00389 -16.79381 -16.56170 -16.20726
 -16.00519 -15.92160 -15.64079 -15.40781 -15.35859 -15.12610 -15.03771 -14.74884
 -14.71108 -14.57326 -14.42450 -14.39436 -14.37563 -14.34927 -14.13586 -13.99786
 -13.69223 -13.63438 -13.50209 -13.36677 -13.19306 -13.07052 -13.00475 -12.85533
 -12.51542 -12.44253 -12.36990 -12.21856 -12.21359 -11.92293 -11.80032 -11.74826
 -11.61190 -11.29732 -11.07802 -10.75006 -10.49471 -10.26907 -10.11516 -10.04014
  -9.99289  -9.81181  -9.03960  -8.95651  -0.98999  -0.16570  -0.13869   0.12158
   0.39893   0.92249   1.15583   1.24221   1.55873   1.74030   2.00306   2.15919
   2.30286   2.67568   2.70831   2.82707   2.98024   3.20899   3.38076   3.55961
   3.69006   3.76523   3.81805   3.95796   4.05841   4.07707   4.24000   4.28150
   4.29849   4.51443   4.54240   4.61123   4.67620   4.70694   4.74227   4.83833
   4.85759   4.87028   4.90667   4.97508   5.10448   5.15100   5.16283   5.20438
   5.23521   5.26583   5.43904   5.45650   5.47808   5.49339   5.56147   5.64342
   5.67737   5.68933   5.73538   5.75186   5.78246   5.78980   5.87662   5.90519
   5.94815   5.98524   6.01330   6.01907   6.10605   6.13859   6.22736   6.32247
   6.33266   6.50662   6.64814


              NET ATOMIC CHARGES AND DIPOLE CONTRIBUTIONS

  ATOM NO.   TYPE          CHARGE      No. of ELECS.   s-Pop       p-Pop       
    1          C          -0.493797        4.4938     1.05931     3.43449
    2          C           0.171739        3.8283     1.09255     2.73571
    3          O          -0.594340        6.5943     1.84408     4.75026
    4          C          -0.061628        4.0616     1.09282     2.96881
    5          N          -0.590684        5.5907     1.56926     4.02143
    6          C           0.586008        3.4140     1.07692     2.33707
    7          O          -0.525191        6.5252     1.88114     4.64405
    8          C          -0.133724        4.1337     1.07158     3.06214
    9          C          -0.117791        4.1178     1.08487     3.03292
   10          C          -0.149016        4.1490     1.08455     3.06447
   11          C           0.070758        3.9292     1.04448     2.88476
   12          C          -0.155487        4.1555     1.08466     3.07083
   13          C          -0.093867        4.0939     1.08640     3.00747
   14          C          -0.120670        4.1207     1.08819     3.03248
   15          C          -0.045645        4.0456     1.09643     2.94922
   16          C          -0.006355        4.0064     1.03849     2.96786
   17          C          -0.123761        4.1238     1.08558     3.03818
   18          C          -0.156638        4.1566     1.08613     3.07050
   19          C           0.013550        3.9865     1.07680     2.90965
   20          C          -0.142467        4.1425     1.06795     3.07451
   21          N          -0.382731        5.3827     1.68993     3.69280
   22          C          -0.164512        4.1645     1.07508     3.08944
   23          C          -0.082259        4.0823     1.09406     2.98820
   24          O          -0.377812        6.3778     1.87959     4.49823
   25          C          -0.085750        4.0858     1.09405     2.99170
   26          C          -0.161274        4.1613     1.07458     3.08669
   27          C          -0.186154        4.1862     1.08350     3.10266
   28          C          -0.115843        4.1158     1.08480     3.03104
   29          C           0.511139        3.4889     1.11782     2.37104
   30          O          -0.504662        6.5047     1.88014     4.62452
   31          N          -0.371036        5.3710     1.65536     3.71567
   32          O          -0.288035        6.2880     1.90934     4.37869
   33          H           0.158876        0.8411     0.84112
   34          H           0.183924        0.8161     0.81608
   35          H           0.161064        0.8389     0.83894
   36          H           0.143734        0.8563     0.85627
   37          H           0.336889        0.6631     0.66311
   38          H           0.200260        0.7997     0.79974
   39          H           0.329498        0.6705     0.67050
   40          H           0.165076        0.8349     0.83492
   41          H           0.166493        0.8335     0.83351
   42          H           0.164297        0.8357     0.83570
   43          H           0.166852        0.8331     0.83315
   44          H           0.157181        0.8428     0.84282
   45          H           0.173986        0.8260     0.82601
   46          H           0.151205        0.8488     0.84879
   47          H           0.152318        0.8477     0.84768
   48          H           0.145568        0.8544     0.85443
   49          H           0.154391        0.8456     0.84561
   50          H           0.120890        0.8791     0.87911
   51          H           0.144377        0.8556     0.85562
   52          H           0.141418        0.8586     0.85858
   53          H           0.121222        0.8788     0.87878
   54          H           0.144096        0.8559     0.85590
   55          H           0.147140        0.8529     0.85286
   56          H           0.158196        0.8418     0.84180
   57          H           0.158667        0.8413     0.84133
   58          H           0.323290        0.6767     0.67671
   59          H           0.307027        0.6930     0.69297
 DIPOLE           X         Y         Z       TOTAL
 POINT-CHG.     2.832     1.978     3.047     4.607
 HYBRID         0.778     0.969    -1.412     1.881
 SUM            3.610     2.947     1.636     4.939


          ATOMIC ORBITAL ELECTRON POPULATIONS

     Atom    s        px        py        pz   
    1  C   1.05931   1.16995   1.20629   1.05825
    2  C   1.09255   1.01433   0.79630   0.92508
    3  O   1.84408   1.56401   1.32247   1.86378
    4  C   1.09282   0.85409   1.13411   0.98061
    5  N   1.56926   1.13732   1.37018   1.51392
    6  C   1.07692   0.84598   0.75005   0.74104
    7  O   1.88114   1.74182   1.37498   1.52725
    8  C   1.07158   0.98680   1.06771   1.00764
    9  C   1.08487   1.00299   0.97334   1.05659
   10  C   1.08455   1.01072   1.00965   1.04410
   11  C   1.04448   0.93749   0.96613   0.98114
   12  C   1.08466   0.99749   1.00785   1.06549
   13  C   1.08640   1.01081   0.95857   1.03808
   14  C   1.08819   0.97753   1.03216   1.02279
   15  C   1.09643   0.97297   0.97847   0.99778
   16  C   1.03849   0.93668   1.03183   0.99936
   17  C   1.08558   1.02108   0.98749   1.02961
   18  C   1.08613   0.99048   1.01552   1.06450
   19  C   1.07680   0.97462   0.96108   0.97395
   20  C   1.06795   1.00899   0.93556   1.12997
   21  N   1.68993   1.18365   1.07269   1.43646
   22  C   1.07508   1.07756   1.01578   0.99609
   23  C   1.09406   0.93558   0.98696   1.06566
   24  O   1.87959   1.49676   1.61455   1.38691
   25  C   1.09405   0.96834   1.13569   0.88767
   26  C   1.07458   0.89064   1.16227   1.03379
   27  C   1.08350   1.02443   1.03097   1.04726
   28  C   1.08480   0.99017   0.99761   1.04326
   29  C   1.11782   0.79627   0.71910   0.85566
   30  O   1.88014   1.53218   1.52707   1.56527
   31  N   1.65536   1.16536   1.50529   1.04502
   32  O   1.90934   1.72589   1.49871   1.15409
   33  H   0.84112
   34  H   0.81608
   35  H   0.83894
   36  H   0.85627
   37  H   0.66311
   38  H   0.79974
   39  H   0.67050
   40  H   0.83492
   41  H   0.83351
   42  H   0.83570
   43  H   0.83315
   44  H   0.84282
   45  H   0.82601
   46  H   0.84879
   47  H   0.84768
   48  H   0.85443
   49  H   0.84561
   50  H   0.87911
   51  H   0.85562
   52  H   0.85858
   53  H   0.87878
   54  H   0.85590
   55  H   0.85286
   56  H   0.84180
   57  H   0.84133
   58  H   0.67671
   59  H   0.69297

 **********************
 *                    *
 * JOB ENDED NORMALLY *
 *                    *
 **********************



 TOTAL JOB TIME:            13.20 SECONDS

 == MOPAC DONE ==
