 *******************************************************************************
 **                                                                           **
 **                              MOPAC v23.0.3                                **
 **                                                                           **
 *******************************************************************************
 **          Digital Object Identifier (DOI): 10.5281/zenodo.6511958          **
 **    Visit the DOI location for information on how to cite this program.    **
 *******************************************************************************

                              PM7 CALCULATION RESULTS

 *******************************************************************************
 *  CALCULATION DONE:                                Fri Jul 25 19:32:28 2025  *
 *  PM7        - The PM7 Hamiltonian to be used
 *  XYZ        - CARTESIAN COORDINATE SYSTEM TO BE USED
 *  T=         - A TIME OF 172800.0 SECONDS REQUESTED
 *  DUMP=N     - RESTART FILE WRITTEN EVERY 7200.0 SECONDS REQUESTED
 *******************************************************************************
PM7 XYZ

 Lipophilicity_351 - geometry optimisation
   ATOM   CHEMICAL          X               Y               Z
  NUMBER   SYMBOL      (ANGSTROMS)     (ANGSTROMS)     (ANGSTROMS)

     1       C          8.12336700  *  -2.11118500  *   0.29168100  *
     2       C          7.94775000  *  -0.67627000  *  -0.19313900  *
     3       N          6.64662300  *  -0.15053800  *   0.21635400  *
     4       C          5.42185500  *  -0.55172800  *  -0.41854500  *
     5       O          5.45813700  *  -1.30470200  *  -1.42977500  *
     6       C          4.11236800  *  -0.09059300  *   0.08539500  *
     7       C          2.89260100  *  -0.32801600  *  -0.55013800  *
     8       C          1.94022200  *   0.26395100  *   0.25580300  *
     9       C          0.55303500  *   0.39026300  *   0.12652700  *
    10       C         -0.12954300  *   1.12162100  *   1.13966200  *
    11       C          0.61892700  *   1.68867800  *   2.20460500  *
    12       N          1.97306600  *   1.53195000  *   2.27212100  *
    13       C          2.60706200  *   0.82586300  *   1.30652300  *
    14       N          3.92977800  *   0.61758600  *   1.22732300  *
    15       C         -1.60421900  *   1.27388400  *   1.13235900  *
    16       C         -2.19057100  *   2.53623800  *   1.28062600  *
    17       N         -3.54104400  *   2.66987900  *   1.24884100  *
    18       C         -4.37545400  *   1.60622800  *   1.07864100  *
    19       O         -5.76046600  *   1.80451400  *   1.04477200  *
    20       C         -6.36159200  *   3.08688500  *   1.17920900  *
    21       C         -3.83533900  *   0.31143300  *   0.93601500  *
    22       C         -2.44134900  *   0.15957000  *   0.98018000  *
    23       C         -4.68715700  *  -0.88248200  *   0.73039100  *
    24       N         -6.03901700  *  -0.86923500  *   0.68582900  *
    25       N         -6.40381800  *  -2.12375500  *   0.48249600  *
    26       C         -5.27987600  *  -2.84975900  *   0.41044300  *
    27       O         -5.25194000  *  -4.09391600  *   0.22133200  *
    28       O         -4.21646300  *  -2.10211800  *   0.56092900  *
    29       N         -0.13764400  *  -0.15615500  *  -1.00906000  *
    30       C         -0.02815700  *  -1.41521200  *  -1.47720400  *
    31       C         -0.88753600  *  -1.56060000  *  -2.54500500  *
    32       C         -1.50544900  *  -0.32849500  *  -2.65995500  *
    33       N         -1.02683500  *   0.51450200  *  -1.72489700  *
    34       C         -2.51218900  *   0.05489600  *  -3.69641700  *
    35       F         -3.19908800  *   1.18606900  *  -3.29403800  *
    36       F         -3.41446700  *  -0.97694400  *  -3.88033900  *
    37       F         -1.86641300  *   0.31538300  *  -4.89020100  *
    38       H          9.13287300  *  -2.47824600  *   0.01061700  *
    39       H          8.02106100  *  -2.15452700  *   1.39683500  *
    40       H          7.36309300  *  -2.77446900  *  -0.17125900  *
    41       H          8.75290500  *  -0.05018300  *   0.24899800  *
    42       H          8.04738500  *  -0.63038600  *  -1.29913800  *
    43       H          6.63480900  *   0.59463300  *   0.94656300  *
    44       H          2.73432200  *  -0.84869400  *  -1.48515600  *
    45       H          0.11742200  *   2.24068900  *   2.98924200  *
    46       H          4.64747900  *   0.94181500  *   1.91171600  *
    47       H         -1.57506100  *   3.41813600  *   1.40352700  *
    48       H         -6.09622600  *   3.53011900  *   2.16234500  *
    49       H         -6.01949400  *   3.75489300  *   0.36055900  *
    50       H         -7.46405000  *   2.98032700  *   1.11893500  *
    51       H         -2.00225100  *  -0.82687400  *   0.88932900  *
    52       H         -7.38881000  *  -2.45921200  *   0.39727800  *
    53       H          0.61228800  *  -2.18186400  *  -1.06064200  *
    54       H         -1.04690600  *  -2.44384700  *  -3.14909100  *



          CARTESIAN COORDINATES 

    NO.       ATOM           X           Y           Z

     1         C          8.1234     -2.1112      0.2917
     2         C          7.9478     -0.6763     -0.1931
     3         N          6.6466     -0.1505      0.2164
     4         C          5.4219     -0.5517     -0.4185
     5         O          5.4581     -1.3047     -1.4298
     6         C          4.1124     -0.0906      0.0854
     7         C          2.8926     -0.3280     -0.5501
     8         C          1.9402      0.2640      0.2558
     9         C          0.5530      0.3903      0.1265
    10         C         -0.1295      1.1216      1.1397
    11         C          0.6189      1.6887      2.2046
    12         N          1.9731      1.5320      2.2721
    13         C          2.6071      0.8259      1.3065
    14         N          3.9298      0.6176      1.2273
    15         C         -1.6042      1.2739      1.1324
    16         C         -2.1906      2.5362      1.2806
    17         N         -3.5410      2.6699      1.2488
    18         C         -4.3755      1.6062      1.0786
    19         O         -5.7605      1.8045      1.0448
    20         C         -6.3616      3.0869      1.1792
    21         C         -3.8353      0.3114      0.9360
    22         C         -2.4413      0.1596      0.9802
    23         C         -4.6872     -0.8825      0.7304
    24         N         -6.0390     -0.8692      0.6858
    25         N         -6.4038     -2.1238      0.4825
    26         C         -5.2799     -2.8498      0.4104
    27         O         -5.2519     -4.0939      0.2213
    28         O         -4.2165     -2.1021      0.5609
    29         N         -0.1376     -0.1562     -1.0091
    30         C         -0.0282     -1.4152     -1.4772
    31         C         -0.8875     -1.5606     -2.5450
    32         C         -1.5054     -0.3285     -2.6600
    33         N         -1.0268      0.5145     -1.7249
    34         C         -2.5122      0.0549     -3.6964
    35         F         -3.1991      1.1861     -3.2940
    36         F         -3.4145     -0.9769     -3.8803
    37         F         -1.8664      0.3154     -4.8902
    38         H          9.1329     -2.4782      0.0106
    39         H          8.0211     -2.1545      1.3968
    40         H          7.3631     -2.7745     -0.1713
    41         H          8.7529     -0.0502      0.2490
    42         H          8.0474     -0.6304     -1.2991
    43         H          6.6348      0.5946      0.9466
    44         H          2.7343     -0.8487     -1.4852
    45         H          0.1174      2.2407      2.9892
    46         H          4.6475      0.9418      1.9117
    47         H         -1.5751      3.4181      1.4035
    48         H         -6.0962      3.5301      2.1623
    49         H         -6.0195      3.7549      0.3606
    50         H         -7.4641      2.9803      1.1189
    51         H         -2.0023     -0.8269      0.8893
    52         H         -7.3888     -2.4592      0.3973
    53         H          0.6123     -2.1819     -1.0606
    54         H         -1.0469     -2.4438     -3.1491

 General Reference for PM7:
 "Optimization of Parameters for Semiempirical Methods VI: More Modifications to the 
 NDDO Approximations and Re-optimization of Parameters", J. J. P. Stewart, J. Mol. Mod., 1:32, 19 (2013)
 https://link.springer.com/article/10.1007/s00894-012-1667-x

           Empirical Formula: C22 H17 N8 O4 F3  =    54 atoms



      MOLECULAR POINT GROUP   :   C1  


      RHF CALCULATION, NO. OF DOUBLY OCCUPIED LEVELS = 95


          Geometry optimization using L-BFGS
 CYCLE:     1 TIME:   0.086 TIME LEFT:  2.00D  GRAD.:   492.969 HEAT: -75.21273
 CYCLE:     2 TIME:   0.047 TIME LEFT:  2.00D  GRAD.:   478.957 HEAT: -77.60782
 CYCLE:     3 TIME:   0.055 TIME LEFT:  2.00D  GRAD.:   117.175 HEAT: -124.6696
 CYCLE:     4 TIME:   0.062 TIME LEFT:  2.00D  GRAD.:   479.115 HEAT: -77.61347
 CYCLE:     5 TIME:   0.055 TIME LEFT:  2.00D  GRAD.:   117.214 HEAT: -124.6713
 CYCLE:     6 TIME:   0.047 TIME LEFT:  2.00D  GRAD.:    77.112 HEAT: -128.6181
 CYCLE:     7 TIME:   0.062 TIME LEFT:  2.00D  GRAD.:    58.929 HEAT: -132.6097
 CYCLE:     8 TIME:   0.055 TIME LEFT:  2.00D  GRAD.:    76.947 HEAT: -134.6452
 CYCLE:     9 TIME:   0.047 TIME LEFT:  2.00D  GRAD.:    40.061 HEAT: -136.2043
 CYCLE:    10 TIME:   0.055 TIME LEFT:  2.00D  GRAD.:    30.500 HEAT: -136.9630
 CYCLE:    11 TIME:   0.047 TIME LEFT:  2.00D  GRAD.:    28.636 HEAT: -137.6402
 CYCLE:    12 TIME:   0.047 TIME LEFT:  2.00D  GRAD.:    43.656 HEAT: -138.0993
 CYCLE:    13 TIME:   0.055 TIME LEFT:  2.00D  GRAD.:    14.669 HEAT: -138.4791
 CYCLE:    14 TIME:   0.047 TIME LEFT:  2.00D  GRAD.:    12.071 HEAT: -138.5931
 CYCLE:    15 TIME:   0.047 TIME LEFT:  2.00D  GRAD.:    12.727 HEAT: -138.7265
 CYCLE:    16 TIME:   0.055 TIME LEFT:  2.00D  GRAD.:    19.398 HEAT: -138.8976
 CYCLE:    17 TIME:   0.047 TIME LEFT:  2.00D  GRAD.:    13.079 HEAT: -139.0408
 CYCLE:    18 TIME:   0.047 TIME LEFT:  2.00D  GRAD.:     8.561 HEAT: -139.1275
 CYCLE:    19 TIME:   0.047 TIME LEFT:  2.00D  GRAD.:     9.452 HEAT: -139.2151
 CYCLE:    20 TIME:   0.055 TIME LEFT:  2.00D  GRAD.:    13.888 HEAT: -139.2707
 CYCLE:    21 TIME:   0.047 TIME LEFT:  2.00D  GRAD.:     9.073 HEAT: -139.3314
 CYCLE:    22 TIME:   0.047 TIME LEFT:  2.00D  GRAD.:     8.515 HEAT: -139.3961
 CYCLE:    23 TIME:   0.047 TIME LEFT:  2.00D  GRAD.:     9.404 HEAT: -139.4377
 CYCLE:    24 TIME:   0.047 TIME LEFT:  2.00D  GRAD.:     8.196 HEAT: -139.5084
 CYCLE:    25 TIME:   0.047 TIME LEFT:  2.00D  GRAD.:    21.616 HEAT: -139.5309
 CYCLE:    26 TIME:   0.055 TIME LEFT:  2.00D  GRAD.:     6.448 HEAT: -139.6078
 CYCLE:    27 TIME:   0.047 TIME LEFT:  2.00D  GRAD.:     4.865 HEAT: -139.6298
 CYCLE:    28 TIME:   0.047 TIME LEFT:  2.00D  GRAD.:     6.152 HEAT: -139.6620
 CYCLE:    29 TIME:   0.047 TIME LEFT:  2.00D  GRAD.:     8.920 HEAT: -139.7055
 CYCLE:    30 TIME:   0.047 TIME LEFT:  2.00D  GRAD.:     8.019 HEAT: -139.7493
 CYCLE:    31 TIME:   0.055 TIME LEFT:  2.00D  GRAD.:     4.872 HEAT: -139.7776
 CYCLE:    32 TIME:   0.047 TIME LEFT:  2.00D  GRAD.:     4.632 HEAT: -139.7958
 CYCLE:    33 TIME:   0.047 TIME LEFT:  2.00D  GRAD.:     5.158 HEAT: -139.8132
 CYCLE:    34 TIME:   0.047 TIME LEFT:  2.00D  GRAD.:     6.032 HEAT: -139.8406
 CYCLE:    35 TIME:   0.047 TIME LEFT:  2.00D  GRAD.:     7.569 HEAT: -139.8604
 CYCLE:    36 TIME:   0.047 TIME LEFT:  2.00D  GRAD.:     4.870 HEAT: -139.8813
 CYCLE:    37 TIME:   0.055 TIME LEFT:  2.00D  GRAD.:     5.063 HEAT: -139.9056
 CYCLE:    38 TIME:   0.047 TIME LEFT:  2.00D  GRAD.:     8.773 HEAT: -139.9266
 CYCLE:    39 TIME:   0.047 TIME LEFT:  2.00D  GRAD.:     6.108 HEAT: -139.9537
 CYCLE:    40 TIME:   0.047 TIME LEFT:  2.00D  GRAD.:     5.460 HEAT: -139.9901
 CYCLE:    41 TIME:   0.047 TIME LEFT:  2.00D  GRAD.:     7.588 HEAT: -140.0152
 CYCLE:    42 TIME:   0.047 TIME LEFT:  2.00D  GRAD.:     5.548 HEAT: -140.0441
 CYCLE:    43 TIME:   0.055 TIME LEFT:  2.00D  GRAD.:     4.498 HEAT: -140.0690
 CYCLE:    44 TIME:   0.047 TIME LEFT:  2.00D  GRAD.:     6.488 HEAT: -140.0837
 CYCLE:    45 TIME:   0.047 TIME LEFT:  2.00D  GRAD.:     4.011 HEAT: -140.0987
 CYCLE:    46 TIME:   0.047 TIME LEFT:  2.00D  GRAD.:     3.798 HEAT: -140.1147
 CYCLE:    47 TIME:   0.047 TIME LEFT:  2.00D  GRAD.:     5.582 HEAT: -140.1294
 CYCLE:    48 TIME:   0.047 TIME LEFT:  2.00D  GRAD.:     5.568 HEAT: -140.1430
 CYCLE:    49 TIME:   0.055 TIME LEFT:  2.00D  GRAD.:     3.531 HEAT: -140.1554
 CYCLE:    50 TIME:   0.047 TIME LEFT:  2.00D  GRAD.:     3.638 HEAT: -140.1696
 CYCLE:    51 TIME:   0.047 TIME LEFT:  2.00D  GRAD.:     4.123 HEAT: -140.1779
 CYCLE:    52 TIME:   0.047 TIME LEFT:  2.00D  GRAD.:     3.000 HEAT: -140.1881
 CYCLE:    53 TIME:   0.055 TIME LEFT:  2.00D  GRAD.:     4.136 HEAT: -140.1978
 CYCLE:    54 TIME:   0.047 TIME LEFT:  2.00D  GRAD.:     4.826 HEAT: -140.2050
 CYCLE:    55 TIME:   0.047 TIME LEFT:  2.00D  GRAD.:     3.079 HEAT: -140.2120
 CYCLE:    56 TIME:   0.047 TIME LEFT:  2.00D  GRAD.:     2.826 HEAT: -140.2203
 CYCLE:    57 TIME:   0.047 TIME LEFT:  2.00D  GRAD.:     3.400 HEAT: -140.2279
 CYCLE:    58 TIME:   0.055 TIME LEFT:  2.00D  GRAD.:     4.124 HEAT: -140.2380
 CYCLE:    59 TIME:   0.047 TIME LEFT:  2.00D  GRAD.:     4.433 HEAT: -140.2485
 CYCLE:    60 TIME:   0.047 TIME LEFT:  2.00D  GRAD.:     3.611 HEAT: -140.2598
 CYCLE:    61 TIME:   0.047 TIME LEFT:  2.00D  GRAD.:     4.127 HEAT: -140.2747
 CYCLE:    62 TIME:   0.047 TIME LEFT:  2.00D  GRAD.:     5.493 HEAT: -140.2832
 CYCLE:    63 TIME:   0.047 TIME LEFT:  2.00D  GRAD.:     3.504 HEAT: -140.2925
 CYCLE:    64 TIME:   0.055 TIME LEFT:  2.00D  GRAD.:     3.369 HEAT: -140.3052
 CYCLE:    65 TIME:   0.047 TIME LEFT:  2.00D  GRAD.:     4.904 HEAT: -140.3145
 CYCLE:    66 TIME:   0.047 TIME LEFT:  2.00D  GRAD.:     4.662 HEAT: -140.3289
 CYCLE:    67 TIME:   0.055 TIME LEFT:  2.00D  GRAD.:     5.389 HEAT: -140.3454
 CYCLE:    68 TIME:   0.055 TIME LEFT:  2.00D  GRAD.:     7.342 HEAT: -140.3608
 CYCLE:    69 TIME:   0.047 TIME LEFT:  2.00D  GRAD.:     5.226 HEAT: -140.3849
 CYCLE:    70 TIME:   0.047 TIME LEFT:  2.00D  GRAD.:     3.417 HEAT: -140.4004
 CYCLE:    71 TIME:   0.047 TIME LEFT:  2.00D  GRAD.:     3.230 HEAT: -140.4109
 CYCLE:    72 TIME:   0.055 TIME LEFT:  2.00D  GRAD.:     5.287 HEAT: -140.4247
 CYCLE:    73 TIME:   0.055 TIME LEFT:  2.00D  GRAD.:     4.881 HEAT: -140.4316
 CYCLE:    74 TIME:   0.047 TIME LEFT:  2.00D  GRAD.:     3.321 HEAT: -140.4406
 CYCLE:    75 TIME:   0.047 TIME LEFT:  2.00D  GRAD.:     3.341 HEAT: -140.4494
 CYCLE:    76 TIME:   0.055 TIME LEFT:  2.00D  GRAD.:     5.489 HEAT: -140.4635
 CYCLE:    77 TIME:   0.047 TIME LEFT:  2.00D  GRAD.:     4.441 HEAT: -140.4822
 CYCLE:    78 TIME:   0.055 TIME LEFT:  2.00D  GRAD.:     3.955 HEAT: -140.4979
 CYCLE:    79 TIME:   0.055 TIME LEFT:  2.00D  GRAD.:     4.610 HEAT: -140.5172
 CYCLE:    80 TIME:   0.047 TIME LEFT:  2.00D  GRAD.:     5.934 HEAT: -140.5329
 CYCLE:    81 TIME:   0.047 TIME LEFT:  2.00D  GRAD.:     4.727 HEAT: -140.5503
 CYCLE:    82 TIME:   0.055 TIME LEFT:  2.00D  GRAD.:     5.329 HEAT: -140.5720
 CYCLE:    83 TIME:   0.047 TIME LEFT:  2.00D  GRAD.:     6.452 HEAT: -140.5860
 CYCLE:    84 TIME:   0.047 TIME LEFT:  2.00D  GRAD.:     4.685 HEAT: -140.5999
 CYCLE:    85 TIME:   0.055 TIME LEFT:  2.00D  GRAD.:     5.622 HEAT: -140.6204
 CYCLE:    86 TIME:   0.062 TIME LEFT:  2.00D  GRAD.:     6.448 HEAT: -140.6409
 CYCLE:    87 TIME:   0.055 TIME LEFT:  2.00D  GRAD.:     6.076 HEAT: -140.6714
 CYCLE:    88 TIME:   0.055 TIME LEFT:  2.00D  GRAD.:     7.948 HEAT: -140.6964
 CYCLE:    89 TIME:   0.047 TIME LEFT:  2.00D  GRAD.:     9.627 HEAT: -140.7344
 CYCLE:    90 TIME:   0.062 TIME LEFT:  2.00D  GRAD.:     9.813 HEAT: -140.7501
 CYCLE:    91 TIME:   0.055 TIME LEFT:  2.00D  GRAD.:    31.014 HEAT: -140.5661
 CYCLE:    92 TIME:   0.047 TIME LEFT:  2.00D  GRAD.:    13.115 HEAT: -140.7822
 CYCLE:    93 TIME:   0.055 TIME LEFT:  2.00D  GRAD.:     9.703 HEAT: -140.8163
 CYCLE:    94 TIME:   0.055 TIME LEFT:  2.00D  GRAD.:     5.223 HEAT: -140.8500
 CYCLE:    95 TIME:   0.047 TIME LEFT:  2.00D  GRAD.:     5.207 HEAT: -140.8728
 CYCLE:    96 TIME:   0.062 TIME LEFT:  2.00D  GRAD.:    10.419 HEAT: -140.9013
 CYCLE:    97 TIME:   0.047 TIME LEFT:  2.00D  GRAD.:    13.250 HEAT: -140.8944
 CYCLE:    98 TIME:   0.055 TIME LEFT:  2.00D  GRAD.:     6.691 HEAT: -140.9620
 CYCLE:    99 TIME:   0.047 TIME LEFT:  2.00D  GRAD.:     5.458 HEAT: -140.9843
 CYCLE:   100 TIME:   0.055 TIME LEFT:  2.00D  GRAD.:     5.884 HEAT: -141.0003
 CYCLE:   101 TIME:   0.055 TIME LEFT:  2.00D  GRAD.:     9.022 HEAT: -141.0103
 CYCLE:   102 TIME:   0.047 TIME LEFT:  2.00D  GRAD.:    26.716 HEAT: -140.9744
 CYCLE:   103 TIME:   0.055 TIME LEFT:  2.00D  GRAD.:     5.485 HEAT: -141.0582
 CYCLE:   104 TIME:   0.047 TIME LEFT:  2.00D  GRAD.:     3.806 HEAT: -141.0700
 CYCLE:   105 TIME:   0.055 TIME LEFT:  2.00D  GRAD.:     5.326 HEAT: -141.0964
 CYCLE:   106 TIME:   0.055 TIME LEFT:  2.00D  GRAD.:     7.283 HEAT: -141.1223
 CYCLE:   107 TIME:   0.055 TIME LEFT:  2.00D  GRAD.:    14.645 HEAT: -141.1244
 CYCLE:   108 TIME:   0.055 TIME LEFT:  2.00D  GRAD.:     5.278 HEAT: -141.1735
 CYCLE:   109 TIME:   0.047 TIME LEFT:  2.00D  GRAD.:     3.838 HEAT: -141.1922
 CYCLE:   110 TIME:   0.055 TIME LEFT:  2.00D  GRAD.:     4.414 HEAT: -141.2159
 CYCLE:   111 TIME:   0.055 TIME LEFT:  2.00D  GRAD.:     9.331 HEAT: -141.2373
 CYCLE:   112 TIME:   0.047 TIME LEFT:  2.00D  GRAD.:     5.378 HEAT: -141.2661
 CYCLE:   113 TIME:   0.055 TIME LEFT:  2.00D  GRAD.:     5.858 HEAT: -141.2846
 CYCLE:   114 TIME:   0.047 TIME LEFT:  2.00D  GRAD.:     5.203 HEAT: -141.3013
 CYCLE:   115 TIME:   0.062 TIME LEFT:  2.00D  GRAD.:     9.651 HEAT: -141.2941
 CYCLE:   116 TIME:   0.055 TIME LEFT:  2.00D  GRAD.:     6.785 HEAT: -141.3290
 CYCLE:   117 TIME:   0.047 TIME LEFT:  2.00D  GRAD.:     2.963 HEAT: -141.3412
 CYCLE:   118 TIME:   0.055 TIME LEFT:  2.00D  GRAD.:     2.196 HEAT: -141.3448
 CYCLE:   119 TIME:   0.047 TIME LEFT:  2.00D  GRAD.:     4.198 HEAT: -141.3519
 CYCLE:   120 TIME:   0.055 TIME LEFT:  2.00D  GRAD.:     3.884 HEAT: -141.3635
 CYCLE:   121 TIME:   0.055 TIME LEFT:  2.00D  GRAD.:     5.732 HEAT: -141.3593
 CYCLE:   122 TIME:   0.047 TIME LEFT:  2.00D  GRAD.:    10.233 HEAT: -141.3640
 CYCLE:   123 TIME:   0.047 TIME LEFT:  2.00D  GRAD.:     2.377 HEAT: -141.3842
 CYCLE:   124 TIME:   0.055 TIME LEFT:  2.00D  GRAD.:     1.536 HEAT: -141.3866
 CYCLE:   125 TIME:   0.047 TIME LEFT:  2.00D  GRAD.:     2.747 HEAT: -141.3948
 CYCLE:   126 TIME:   0.055 TIME LEFT:  2.00D  GRAD.:     4.711 HEAT: -141.4023
 CYCLE:   127 TIME:   0.055 TIME LEFT:  2.00D  GRAD.:     6.466 HEAT: -141.3948
 CYCLE:   128 TIME:   0.055 TIME LEFT:  2.00D  GRAD.:     4.425 HEAT: -141.4011
 CYCLE:   129 TIME:   0.047 TIME LEFT:  2.00D  GRAD.:     7.343 HEAT: -141.4103
 CYCLE:   130 TIME:   0.055 TIME LEFT:  2.00D  GRAD.:     2.070 HEAT: -141.4217
 CYCLE:   131 TIME:   0.047 TIME LEFT:  2.00D  GRAD.:     1.434 HEAT: -141.4245
 CYCLE:   132 TIME:   0.055 TIME LEFT:  2.00D  GRAD.:     2.814 HEAT: -141.4289
 CYCLE:   133 TIME:   0.047 TIME LEFT:  2.00D  GRAD.:     4.357 HEAT: -141.4320
 CYCLE:   134 TIME:   0.047 TIME LEFT:  2.00D  GRAD.:     3.321 HEAT: -141.4378
 CYCLE:   135 TIME:   0.055 TIME LEFT:  2.00D  GRAD.:     4.405 HEAT: -141.4375
 CYCLE:   136 TIME:   0.055 TIME LEFT:  2.00D  GRAD.:    35.454 HEAT: -141.2293
 CYCLE:   137 TIME:   0.055 TIME LEFT:  2.00D  GRAD.:   112.986 HEAT: -139.0523
 CYCLE:   138 TIME:   0.062 TIME LEFT:  2.00D  GRAD.:    77.694 HEAT: -140.2937
 CYCLE:   139 TIME:   0.055 TIME LEFT:  2.00D  GRAD.:    53.838 HEAT: -140.8663
 CYCLE:   140 TIME:   0.055 TIME LEFT:  2.00D  GRAD.:    14.983 HEAT: -141.3243
 CYCLE:   141 TIME:   0.055 TIME LEFT:  2.00D  GRAD.:    11.539 HEAT: -141.4225
 CYCLE:   142 TIME:   0.055 TIME LEFT:  2.00D  GRAD.:   179.617 HEAT: -136.5200
 CYCLE:   143 TIME:   0.062 TIME LEFT:  2.00D  GRAD.:    59.733 HEAT: -140.8885
 CYCLE:   144 TIME:   0.055 TIME LEFT:  2.00D  GRAD.:    41.689 HEAT: -141.1037
 CYCLE:   145 TIME:   0.055 TIME LEFT:  2.00D  GRAD.:    62.869 HEAT: -140.7736
 CYCLE:   146 TIME:   0.062 TIME LEFT:  2.00D  GRAD.:   244.140 HEAT: -129.9461
 CYCLE:   147 TIME:   0.055 TIME LEFT:  2.00D  GRAD.:   124.876 HEAT: -138.8012
 CYCLE:   148 TIME:   0.055 TIME LEFT:  2.00D  GRAD.:   148.263 HEAT: -137.8311
 CYCLE:   149 TIME:   0.062 TIME LEFT:  2.00D  GRAD.:    35.015 HEAT: -141.0295
 CYCLE:   150 TIME:   0.055 TIME LEFT:  2.00D  GRAD.:    26.040 HEAT: -141.1439
 CYCLE:   151 TIME:   0.070 TIME LEFT:  2.00D  GRAD.:    30.017 HEAT: -141.1952
 CYCLE:   152 TIME:   0.055 TIME LEFT:  2.00D  GRAD.:    27.702 HEAT: -141.2354
 CYCLE:   153 TIME:   0.055 TIME LEFT:  2.00D  GRAD.:     8.652 HEAT: -141.3930
 CYCLE:   154 TIME:   0.055 TIME LEFT:  2.00D  GRAD.:     7.084 HEAT: -141.3999
 CYCLE:   155 TIME:   0.047 TIME LEFT:  2.00D  GRAD.:     3.120 HEAT: -141.4125
 CYCLE:   156 TIME:   0.047 TIME LEFT:  2.00D  GRAD.:     4.761 HEAT: -141.4218
 CYCLE:   157 TIME:   0.055 TIME LEFT:  2.00D  GRAD.:     4.978 HEAT: -141.4288
 CYCLE:   158 TIME:   0.047 TIME LEFT:  2.00D  GRAD.:     8.474 HEAT: -141.4372
 CYCLE:   159 TIME:   0.047 TIME LEFT:  2.00D  GRAD.:     3.192 HEAT: -141.4532
 CYCLE:   160 TIME:   0.062 TIME LEFT:  2.00D  GRAD.:     4.167 HEAT: -141.4595
 CYCLE:   161 TIME:   0.047 TIME LEFT:  2.00D  GRAD.:     3.809 HEAT: -141.4651
 CYCLE:   162 TIME:   0.047 TIME LEFT:  2.00D  GRAD.:     2.385 HEAT: -141.4699
 CYCLE:   163 TIME:   0.055 TIME LEFT:  2.00D  GRAD.:     3.441 HEAT: -141.4770
 CYCLE:   164 TIME:   0.055 TIME LEFT:  2.00D  GRAD.:     4.430 HEAT: -141.4830
 CYCLE:   165 TIME:   0.055 TIME LEFT:  2.00D  GRAD.:     5.146 HEAT: -141.4904
 CYCLE:   166 TIME:   0.055 TIME LEFT:  2.00D  GRAD.:    11.253 HEAT: -141.4725
 CYCLE:   167 TIME:   0.047 TIME LEFT:  2.00D  GRAD.:     2.590 HEAT: -141.5046
 CYCLE:   168 TIME:   0.055 TIME LEFT:  2.00D  GRAD.:     2.902 HEAT: -141.5095
 CYCLE:   169 TIME:   0.055 TIME LEFT:  2.00D  GRAD.:     8.872 HEAT: -141.5053
 CYCLE:   170 TIME:   0.047 TIME LEFT:  2.00D  GRAD.:     2.434 HEAT: -141.5210
 CYCLE:   171 TIME:   0.055 TIME LEFT:  2.00D  GRAD.:     1.688 HEAT: -141.5236
 CYCLE:   172 TIME:   0.047 TIME LEFT:  2.00D  GRAD.:     2.150 HEAT: -141.5281
 CYCLE:   173 TIME:   0.055 TIME LEFT:  2.00D  GRAD.:     3.047 HEAT: -141.5336
 CYCLE:   174 TIME:   0.055 TIME LEFT:  2.00D  GRAD.:     2.528 HEAT: -141.5389
 CYCLE:   175 TIME:   0.055 TIME LEFT:  2.00D  GRAD.:     4.010 HEAT: -141.5389
 CYCLE:   176 TIME:   0.047 TIME LEFT:  2.00D  GRAD.:     2.385 HEAT: -141.5475
 CYCLE:   177 TIME:   0.055 TIME LEFT:  2.00D  GRAD.:     2.676 HEAT: -141.5510
 CYCLE:   178 TIME:   0.047 TIME LEFT:  2.00D  GRAD.:     3.004 HEAT: -141.5530
 CYCLE:   179 TIME:   0.047 TIME LEFT:  2.00D  GRAD.:     2.069 HEAT: -141.5557
 CYCLE:   180 TIME:   0.055 TIME LEFT:  2.00D  GRAD.:     2.479 HEAT: -141.5569
 CYCLE:   181 TIME:   0.055 TIME LEFT:  2.00D  GRAD.:     6.730 HEAT: -141.5571
 CYCLE:   182 TIME:   0.047 TIME LEFT:  2.00D  GRAD.:     2.543 HEAT: -141.5658
 CYCLE:   183 TIME:   0.047 TIME LEFT:  2.00D  GRAD.:     1.601 HEAT: -141.5682
 CYCLE:   184 TIME:   0.062 TIME LEFT:  2.00D  GRAD.:     2.293 HEAT: -141.5708
 CYCLE:   185 TIME:   0.047 TIME LEFT:  2.00D  GRAD.:     2.658 HEAT: -141.5748
 CYCLE:   186 TIME:   0.047 TIME LEFT:  2.00D  GRAD.:     1.972 HEAT: -141.5796
 CYCLE:   187 TIME:   0.055 TIME LEFT:  2.00D  GRAD.:     1.933 HEAT: -141.5834
 CYCLE:   188 TIME:   0.062 TIME LEFT:  2.00D  GRAD.:     2.606 HEAT: -141.5878
 CYCLE:   189 TIME:   0.047 TIME LEFT:  2.00D  GRAD.:     4.182 HEAT: -141.5902
 CYCLE:   190 TIME:   0.047 TIME LEFT:  2.00D  GRAD.:     3.334 HEAT: -141.5937
 CYCLE:   191 TIME:   0.055 TIME LEFT:  2.00D  GRAD.:     4.216 HEAT: -141.5919
 CYCLE:   192 TIME:   0.055 TIME LEFT:  2.00D  GRAD.:    27.138 HEAT: -141.4520
 CYCLE:   193 TIME:   0.047 TIME LEFT:  2.00D  GRAD.:     5.015 HEAT: -141.5960
 CYCLE:   194 TIME:   0.047 TIME LEFT:  2.00D  GRAD.:     2.761 HEAT: -141.6013
 CYCLE:   195 TIME:   0.062 TIME LEFT:  2.00D  GRAD.:     4.693 HEAT: -141.5934
 CYCLE:   196 TIME:   0.047 TIME LEFT:  2.00D  GRAD.:     2.952 HEAT: -141.6093
 CYCLE:   197 TIME:   0.055 TIME LEFT:  2.00D  GRAD.:     8.302 HEAT: -141.5986
 CYCLE:   198 TIME:   0.062 TIME LEFT:  2.00D  GRAD.:    13.826 HEAT: -141.5825
 CYCLE:   199 TIME:   0.047 TIME LEFT:  2.00D  GRAD.:    13.492 HEAT: -141.5855
 CYCLE:   200 TIME:   0.047 TIME LEFT:  2.00D  GRAD.:     4.116 HEAT: -141.6142
 CYCLE:   201 TIME:   0.055 TIME LEFT:  2.00D  GRAD.:     3.911 HEAT: -141.6176
 CYCLE:   202 TIME:   0.047 TIME LEFT:  2.00D  GRAD.:     2.208 HEAT: -141.6211
 CYCLE:   203 TIME:   0.055 TIME LEFT:  2.00D  GRAD.:     3.215 HEAT: -141.6208
 CYCLE:   204 TIME:   0.055 TIME LEFT:  2.00D  GRAD.:     2.093 HEAT: -141.6265
 CYCLE:   205 TIME:   0.055 TIME LEFT:  2.00D  GRAD.:     4.495 HEAT: -141.6239
 CYCLE:   206 TIME:   0.055 TIME LEFT:  2.00D  GRAD.:     5.140 HEAT: -141.6307
 CYCLE:   207 TIME:   0.047 TIME LEFT:  2.00D  GRAD.:     1.308 HEAT: -141.6349
 CYCLE:   208 TIME:   0.047 TIME LEFT:  2.00D  GRAD.:     1.173 HEAT: -141.6360
 CYCLE:   209 TIME:   0.062 TIME LEFT:  2.00D  GRAD.:     3.816 HEAT: -141.6379
 CYCLE:   210 TIME:   0.047 TIME LEFT:  2.00D  GRAD.:     2.255 HEAT: -141.6415
 CYCLE:   211 TIME:   0.047 TIME LEFT:  2.00D  GRAD.:     1.374 HEAT: -141.6443
 CYCLE:   212 TIME:   0.055 TIME LEFT:  2.00D  GRAD.:     3.326 HEAT: -141.6471
 CYCLE:   213 TIME:   0.055 TIME LEFT:  2.00D  GRAD.:     2.644 HEAT: -141.6497
 CYCLE:   214 TIME:   0.047 TIME LEFT:  2.00D  GRAD.:     1.205 HEAT: -141.6520
 CYCLE:   215 TIME:   0.055 TIME LEFT:  2.00D  GRAD.:     1.719 HEAT: -141.6550
 CYCLE:   216 TIME:   0.047 TIME LEFT:  2.00D  GRAD.:     1.637 HEAT: -141.6572
 CYCLE:   217 TIME:   0.062 TIME LEFT:  2.00D  GRAD.:     2.260 HEAT: -141.6603
 CYCLE:   218 TIME:   0.055 TIME LEFT:  2.00D  GRAD.:    22.036 HEAT: -141.5741
 CYCLE:   219 TIME:   0.047 TIME LEFT:  2.00D  GRAD.:     3.589 HEAT: -141.6578
 CYCLE:   220 TIME:   0.062 TIME LEFT:  2.00D  GRAD.:     2.192 HEAT: -141.6601
 CYCLE:   221 TIME:   0.047 TIME LEFT:  2.00D  GRAD.:     1.976 HEAT: -141.6644
 CYCLE:   222 TIME:   0.055 TIME LEFT:  2.00D  GRAD.:     2.726 HEAT: -141.6615
 CYCLE:   223 TIME:   0.055 TIME LEFT:  2.00D  GRAD.:     3.257 HEAT: -141.6666
 CYCLE:   224 TIME:   0.055 TIME LEFT:  2.00D  GRAD.:     3.152 HEAT: -141.6658
 CYCLE:   225 TIME:   0.047 TIME LEFT:  2.00D  GRAD.:     1.371 HEAT: -141.6696
 CYCLE:   226 TIME:   0.055 TIME LEFT:  2.00D  GRAD.:     2.395 HEAT: -141.6699
 CYCLE:   227 TIME:   0.055 TIME LEFT:  2.00D  GRAD.:     1.633 HEAT: -141.6727
 CYCLE:   228 TIME:   0.055 TIME LEFT:  2.00D  GRAD.:     1.622 HEAT: -141.6742
 CYCLE:   229 TIME:   0.055 TIME LEFT:  2.00D  GRAD.:     1.396 HEAT: -141.6759
 CYCLE:   230 TIME:   0.047 TIME LEFT:  2.00D  GRAD.:     1.754 HEAT: -141.6790
 CYCLE:   231 TIME:   0.055 TIME LEFT:  2.00D  GRAD.:     2.731 HEAT: -141.6819
 CYCLE:   232 TIME:   0.047 TIME LEFT:  2.00D  GRAD.:     2.013 HEAT: -141.6846
 CYCLE:   233 TIME:   0.062 TIME LEFT:  2.00D  GRAD.:     1.610 HEAT: -141.6862
 CYCLE:   234 TIME:   0.047 TIME LEFT:  2.00D  GRAD.:     5.411 HEAT: -141.6871
 CYCLE:   235 TIME:   0.055 TIME LEFT:  2.00D  GRAD.:     1.726 HEAT: -141.6904
 CYCLE:   236 TIME:   0.047 TIME LEFT:  2.00D  GRAD.:     1.016 HEAT: -141.6916
 CYCLE:   237 TIME:   0.055 TIME LEFT:  2.00D  GRAD.:     1.641 HEAT: -141.6937
 CYCLE:   238 TIME:   0.055 TIME LEFT:  2.00D  GRAD.:     1.822 HEAT: -141.6955
 CYCLE:   239 TIME:   0.055 TIME LEFT:  2.00D  GRAD.:     4.225 HEAT: -141.6970
 CYCLE:   240 TIME:   0.055 TIME LEFT:  2.00D  GRAD.:     1.819 HEAT: -141.7010
 CYCLE:   241 TIME:   0.047 TIME LEFT:  2.00D  GRAD.:     0.993 HEAT: -141.7023

 -------------------------------------------------------------------------------
 PM7 XYZ

 Lipophilicity_351 - geometry optimisation


     HERBERTS TEST WAS SATISFIED IN BFGS                      
     SCF FIELD WAS ACHIEVED                                   


                              PM7 CALCULATION
                                                       MOPAC v23.0.3 Linux
                                                       Fri Jul 25 19:32:41 2025




          FINAL HEAT OF FORMATION =       -141.70227 KCAL/MOL =    -592.88231 KJ/MOL


          COSMO AREA              =        449.84 SQUARE ANGSTROMS
          COSMO VOLUME            =        543.28 CUBIC ANGSTROMS

          GRADIENT NORM           =          0.99272          =       0.13509 PER ATOM
          IONIZATION POTENTIAL    =          9.136073 EV
          HOMO LUMO ENERGIES (EV) =         -9.136 -1.567
          NO. OF FILLED LEVELS    =         95
          MOLECULAR WEIGHT        =        514.4227         POINT GROUP:  C1  

          MOLECULAR DIMENSIONS (Angstroms)

            Atom       Atom       Distance
            H    50    H    38    17.34754
            H    47    O    27     8.27689
            H    45    F    37     7.29518


          SCF CALCULATIONS        =        242

          WALL-CLOCK TIME         =     12.531 SECONDS
          COMPUTATION TIME        =          4 MINUTES AND  9.859 SECONDS




   ATOM   CHEMICAL          X               Y               Z
  NUMBER   SYMBOL      (ANGSTROMS)     (ANGSTROMS)     (ANGSTROMS)

     1       C          8.35031845  *  -2.11186717  *   0.66553882  *
     2       C          7.79236019  *  -0.95096027  *  -0.15648236  *
     3       N          6.42041558  *  -0.62998736  *   0.27174988  *
     4       C          5.51504676  *  -0.15068615  *  -0.65169675  *
     5       O          5.82677805  *   0.05337446  *  -1.80551033  *
     6       C          4.15654114  *   0.13294284  *  -0.13238005  *
     7       C          2.94880677  *  -0.09265474  *  -0.77271288  *
     8       C          1.91604024  *   0.36446595  *   0.10339858  *
     9       C          0.51345697  *   0.46056249  *   0.07645116  *
    10       C         -0.14105066  *   1.02954339  *   1.16960649  *
    11       C          0.62423169  *   1.49134170  *   2.28205372  *
    12       N          1.95011666  *   1.42709773  *   2.35624482  *
    13       C          2.57062558  *   0.87774389  *   1.27916645  *
    14       N          3.93772486  *   0.71397388  *   1.12755775  *
    15       C         -1.58939410  *   1.18558697  *   1.19654530  *
    16       C         -2.15582672  *   2.47507392  *   1.12893635  *
    17       N         -3.47623259  *   2.67730183  *   1.03777563  *
    18       C         -4.28734387  *   1.59390551  *   0.97195713  *
    19       O         -5.60574544  *   1.75472640  *   0.82515215  *
    20       C         -6.07330210  *   3.09732644  *   0.64110642  *
    21       C         -3.81482599  *   0.25919171  *   1.04544987  *
    22       C         -2.43535779  *   0.07718647  *   1.17775798  *
    23       C         -4.68722058  *  -0.86778660  *   0.90293270  *
    24       N         -5.99097838  *  -1.02222660  *   1.03705241  *
    25       N         -6.25769811  *  -2.34108332  *   0.73499978  *
    26       C         -5.08885478  *  -3.02378513  *   0.38564259  *
    27       O         -4.90352338  *  -4.15823376  *   0.06020275  *
    28       O         -4.06978048  *  -2.06407194  *   0.51284645  *
    29       N         -0.18805796  *  -0.04402344  *  -1.04777492  *
    30       C         -0.01441295  *  -1.28557835  *  -1.66573529  *
    31       C         -1.02844603  *  -1.40347037  *  -2.60964946  *
    32       C         -1.78117571  *  -0.19203313  *  -2.50564931  *
    33       N         -1.25450200  *   0.61813411  *  -1.55401951  *
    34       C         -2.99050916  *   0.19570028  *  -3.27954693  *
    35       F         -3.80344341  *   1.04619564  *  -2.65603827  *
    36       F         -3.76794425  *  -0.84137709  *  -3.59329855  *
    37       F         -2.71582677  *   0.77690555  *  -4.44743691  *
    38       H          9.37500388  *  -2.34973415  *   0.35136594  *
    39       H          8.38777604  *  -1.88083974  *   1.73635997  *
    40       H          7.75370151  *  -3.02409181  *   0.53980480  *
    41       H          8.42283637  *  -0.03876720  *  -0.03596526  *
    42       H          7.79980613  *  -1.19769512  *  -1.24664175  *
    43       H          6.14387437  *  -0.92630996  *   1.19060710  *
    44       H          2.81191909  *  -0.50719582  *  -1.75474977  *
    45       H          0.11181202  *   1.93122807  *   3.15088524  *
    46       H          4.63495017  *   1.06682732  *   1.74809566  *
    47       H         -1.52951289  *   3.37803910  *   1.13461372  *
    48       H         -5.87527497  *   3.69749528  *   1.53455864  *
    49       H         -5.60565897  *   3.55135307  *  -0.24040854  *
    50       H         -7.14747886  *   2.93471171  *   0.48985013  *
    51       H         -2.02383918  *  -0.93583436  *   1.23723021  *
    52       H         -7.21449356  *  -2.63756100  *   0.71646928  *
    53       H          0.77546157  *  -1.95888199  *  -1.39210030  *
    54       H         -1.22178393  *  -2.22217656  *  -3.27214795  *

                             CARTESIAN COORDINATES

   1    C        8.350318448    -2.111867167     0.665538817
   2    C        7.792360195    -0.950960267    -0.156482363
   3    N        6.420415577    -0.629987363     0.271749875
   4    C        5.515046764    -0.150686154    -0.651696754
   5    O        5.826778052     0.053374459    -1.805510329
   6    C        4.156541139     0.132942842    -0.132380049
   7    C        2.948806767    -0.092654744    -0.772712880
   8    C        1.916040244     0.364465946     0.103398578
   9    C        0.513456974     0.460562493     0.076451160
  10    C       -0.141050661     1.029543393     1.169606488
  11    C        0.624231688     1.491341704     2.282053718
  12    N        1.950116660     1.427097725     2.356244821
  13    C        2.570625578     0.877743886     1.279166448
  14    N        3.937724855     0.713973880     1.127557751
  15    C       -1.589394100     1.185586969     1.196545301
  16    C       -2.155826721     2.475073923     1.128936355
  17    N       -3.476232592     2.677301826     1.037775631
  18    C       -4.287343867     1.593905507     0.971957132
  19    O       -5.605745437     1.754726401     0.825152148
  20    C       -6.073302096     3.097326441     0.641106422
  21    C       -3.814825993     0.259191715     1.045449870
  22    C       -2.435357792     0.077186473     1.177757981
  23    C       -4.687220580    -0.867786602     0.902932702
  24    N       -5.990978380    -1.022226601     1.037052412
  25    N       -6.257698112    -2.341083317     0.734999776
  26    C       -5.088854778    -3.023785131     0.385642594
  27    O       -4.903523380    -4.158233758     0.060202746
  28    O       -4.069780484    -2.064071936     0.512846454
  29    N       -0.188057960    -0.044023437    -1.047774923
  30    C       -0.014412948    -1.285578349    -1.665735286
  31    C       -1.028446032    -1.403470373    -2.609649460
  32    C       -1.781175709    -0.192033131    -2.505649315
  33    N       -1.254501997     0.618134113    -1.554019512
  34    C       -2.990509159     0.195700277    -3.279546935
  35    F       -3.803443407     1.046195641    -2.656038270
  36    F       -3.767944251    -0.841377090    -3.593298554
  37    F       -2.715826773     0.776905549    -4.447436909
  38    H        9.375003882    -2.349734154     0.351365938
  39    H        8.387776040    -1.880839737     1.736359969
  40    H        7.753701511    -3.024091809     0.539804800
  41    H        8.422836374    -0.038767197    -0.035965261
  42    H        7.799806131    -1.197695122    -1.246641752
  43    H        6.143874367    -0.926309960     1.190607096
  44    H        2.811919086    -0.507195821    -1.754749768
  45    H        0.111812016     1.931228071     3.150885241
  46    H        4.634950169     1.066827324     1.748095658
  47    H       -1.529512889     3.378039100     1.134613724
  48    H       -5.875274972     3.697495281     1.534558645
  49    H       -5.605658966     3.551353067    -0.240408540
  50    H       -7.147478865     2.934711715     0.489850129
  51    H       -2.023839179    -0.935834357     1.237230212
  52    H       -7.214493555    -2.637560998     0.716469281
  53    H        0.775461568    -1.958881993    -1.392100302
  54    H       -1.221783931    -2.222176561    -3.272147953


           Empirical Formula: C22 H17 N8 O4 F3  =    54 atoms



      MOLECULAR POINT GROUP   :   C1  


                  EIGENVALUES  
 -41.71788 -41.27777 -41.25180 -40.67729 -40.28703 -38.82649 -37.26197 -36.52397
 -36.43962 -32.24461 -32.21304 -31.27029 -31.05854 -30.78865 -30.31044 -29.78079
 -29.24606 -28.49439 -27.82944 -27.65705 -26.68093 -25.87792 -25.48359 -24.94656
 -23.94601 -23.72607 -23.08994 -22.64348 -22.33860 -22.16285 -21.78976 -21.55284
 -20.89276 -20.59072 -20.33077 -19.71479 -18.92200 -18.84506 -18.60899 -18.57889
 -18.43771 -18.16721 -17.82617 -17.40182 -17.13404 -16.96478 -16.77883 -16.59718
 -16.51829 -16.32327 -16.29780 -16.28341 -16.18974 -16.10867 -16.02735 -15.95554
 -15.74185 -15.59328 -15.33929 -15.32458 -15.23306 -15.11811 -15.04106 -14.93729
 -14.80609 -14.73235 -14.67497 -14.48160 -14.38850 -14.16802 -13.90775 -13.77129
 -13.67361 -13.61708 -13.56136 -13.39914 -12.90534 -12.79035 -12.76889 -12.58455
 -12.49659 -12.35141 -11.99968 -11.52821 -11.38925 -11.28426 -11.03234 -10.99257
 -10.72605 -10.54389 -10.29936 -10.20457  -9.85280  -9.61976  -9.13607  -1.56712
  -1.00185  -0.89369  -0.32170  -0.13143   0.17222   0.34376   0.39329   0.44933
   0.58406   0.71000   1.00150   1.26243   1.33528   1.46159   1.50966   1.56209
   1.88913   1.96139   2.20697   2.38832   2.57941   2.66377   2.71237   2.82841
   2.90575   2.99046   3.05006   3.23279   3.29022   3.35218   3.37758   3.43875
   3.52377   3.57238   3.66064   3.76713   3.88396   3.93876   4.04166   4.05421
   4.30187   4.35245   4.48934   4.49340   4.52363   4.55290   4.61834   4.75601
   4.76851   4.90266   5.01026   5.06526   5.08418   5.13811   5.21389   5.26801
   5.29206   5.30031   5.41140   5.45734   5.46722   5.55088   5.59235   5.60213
   5.73316   5.96117   5.99409   6.06799   6.23809


              NET ATOMIC CHARGES AND DIPOLE CONTRIBUTIONS

  ATOM NO.   TYPE          CHARGE      No. of ELECS.   s-Pop       p-Pop       
    1          C          -0.471808        4.4718     1.05685     3.41496
    2          C          -0.038344        4.0383     1.06337     2.97498
    3          N          -0.604195        5.6042     1.56368     4.04051
    4          C           0.569527        3.4305     1.06008     2.37039
    5          O          -0.475759        6.4758     1.88242     4.59334
    6          C          -0.017371        4.0174     1.07883     2.93854
    7          C          -0.144003        4.1440     1.07987     3.06413
    8          C          -0.182592        4.1826     1.05560     3.12699
    9          C           0.241874        3.7581     1.05144     2.70669
   10          C          -0.130957        4.1310     1.05786     3.07310
   11          C           0.093812        3.9062     1.10065     2.80554
   12          N          -0.382514        5.3825     1.74236     3.64015
   13          C           0.263440        3.7366     1.04969     2.68687
   14          N          -0.343063        5.3431     1.51256     3.83051
   15          C          -0.176876        4.1769     1.04718     3.12970
   16          C           0.167269        3.8327     1.10311     2.72962
   17          N          -0.473675        5.4737     1.74634     3.72734
   18          C           0.433318        3.5667     1.08365     2.48303
   19          O          -0.243637        6.2436     1.86868     4.37496
   20          C          -0.191184        4.1912     1.09317     3.09801
   21          C          -0.230035        4.2300     1.03602     3.19402
   22          C           0.025214        3.9748     1.09382     2.88096
   23          C           0.288466        3.7115     1.08925     2.62229
   24          N          -0.203927        5.2039     1.78770     3.41623
   25          N          -0.425262        5.4253     1.55149     3.87377
   26          C           0.639816        3.3602     1.07578     2.28441
   27          O          -0.424235        6.4242     1.87793     4.54631
   28          O          -0.328428        6.3284     1.88625     4.44218
   29          N          -0.088660        5.0887     1.51576     3.57290
   30          C          -0.061058        4.0611     1.09812     2.96293
   31          C          -0.190811        4.1908     1.08546     3.10536
   32          C          -0.072168        4.0722     1.07180     3.00036
   33          N          -0.175405        5.1754     1.79370     3.38171
   34          C           0.568905        3.4311     1.13402     2.29708
   35          F          -0.184813        7.1848     1.96838     5.21644
   36          F          -0.190060        7.1901     1.96853     5.22153
   37          F          -0.189584        7.1896     1.96862     5.22096
   38          H           0.159911        0.8401     0.84009
   39          H           0.149773        0.8502     0.85023
   40          H           0.157172        0.8428     0.84283
   41          H           0.142068        0.8579     0.85793
   42          H           0.164928        0.8351     0.83507
   43          H           0.310505        0.6895     0.68950
   44          H           0.190806        0.8092     0.80919
   45          H           0.189059        0.8109     0.81094
   46          H           0.330822        0.6692     0.66918
   47          H           0.180118        0.8199     0.81988
   48          H           0.145319        0.8547     0.85468
   49          H           0.154976        0.8450     0.84502
   50          H           0.152716        0.8473     0.84728
   51          H           0.179861        0.8201     0.82014
   52          H           0.360981        0.6390     0.63902
   53          H           0.188072        0.8119     0.81193
   54          H           0.191696        0.8083     0.80830
 DIPOLE           X         Y         Z       TOTAL
 POINT-CHG.     4.970     1.094     5.541     7.523
 HYBRID         0.181    -1.836    -0.420     1.892
 SUM            5.151    -0.743     5.122     7.302


          ATOMIC ORBITAL ELECTRON POPULATIONS

     Atom    s        px        py        pz   
    1  C   1.05685   1.16799   1.10509   1.14188
    2  C   1.06337   0.82546   1.05254   1.09698
    3  N   1.56368   1.17717   1.63981   1.22353
    4  C   1.06008   0.81009   0.76356   0.79674
    5  O   1.88242   1.78608   1.55227   1.25499
    6  C   1.07883   1.01253   1.06962   0.85638
    7  C   1.07987   0.94174   1.05825   1.06414
    8  C   1.05560   0.96877   1.13193   1.02629
    9  C   1.05144   0.91094   0.94886   0.84689
   10  C   1.05786   0.99174   1.09202   0.98934
   11  C   1.10065   0.87697   0.91897   1.00959
   12  N   1.74236   1.16198   1.20472   1.27345
   13  C   1.04969   0.81864   0.96054   0.90769
   14  N   1.51256   1.13121   1.48158   1.21772
   15  C   1.04718   0.96460   1.00051   1.16459
   16  C   1.10311   0.89243   1.01653   0.82066
   17  N   1.74634   1.12420   1.34669   1.25645
   18  C   1.08365   0.81910   0.86719   0.79673
   19  O   1.86868   1.23426   1.32954   1.81116
   20  C   1.09317   1.08564   0.85281   1.15957
   21  C   1.03602   0.99531   0.95983   1.23888
   22  C   1.09382   0.96191   1.07020   0.84884
   23  C   1.08925   0.83773   0.83708   0.94747
   24  N   1.78770   1.19651   0.98372   1.23600
   25  N   1.55149   1.17512   1.06620   1.63245
   26  C   1.07578   0.74982   0.78118   0.75341
   27  O   1.87793   1.77951   1.21820   1.54860
   28  O   1.88625   1.38952   1.28969   1.76297
   29  N   1.51576   1.19480   1.14799   1.23011
   30  C   1.09812   1.07257   0.88870   1.00166
   31  C   1.08546   0.99687   1.04137   1.06712
   32  C   1.07180   1.01158   0.97515   1.01363
   33  N   1.79370   1.00048   1.23379   1.14744
   34  C   1.13402   0.80330   0.73352   0.76027
   35  F   1.96838   1.70902   1.68529   1.82213
   36  F   1.96853   1.73483   1.55328   1.93341
   37  F   1.96862   1.94779   1.83762   1.43556
   38  H   0.84009
   39  H   0.85023
   40  H   0.84283
   41  H   0.85793
   42  H   0.83507
   43  H   0.68950
   44  H   0.80919
   45  H   0.81094
   46  H   0.66918
   47  H   0.81988
   48  H   0.85468
   49  H   0.84502
   50  H   0.84728
   51  H   0.82014
   52  H   0.63902
   53  H   0.81193
   54  H   0.80830

 **********************
 *                    *
 * JOB ENDED NORMALLY *
 *                    *
 **********************



 TOTAL JOB TIME:            12.54 SECONDS

 == MOPAC DONE ==
