 *******************************************************************************
 **                                                                           **
 **                              MOPAC v23.0.3                                **
 **                                                                           **
 *******************************************************************************
 **          Digital Object Identifier (DOI): 10.5281/zenodo.6511958          **
 **    Visit the DOI location for information on how to cite this program.    **
 *******************************************************************************

                              PM7 CALCULATION RESULTS

 *******************************************************************************
 *  CALCULATION DONE:                                Fri Jul 25 16:49:53 2025  *
 *  PM7        - The PM7 Hamiltonian to be used
 *  XYZ        - CARTESIAN COORDINATE SYSTEM TO BE USED
 *  T=         - A TIME OF 172800.0 SECONDS REQUESTED
 *  DUMP=N     - RESTART FILE WRITTEN EVERY 7200.0 SECONDS REQUESTED
 *******************************************************************************
PM7 XYZ

 Lipophilicity_1315 - geometry optimisation
   ATOM   CHEMICAL          X               Y               Z
  NUMBER   SYMBOL      (ANGSTROMS)     (ANGSTROMS)     (ANGSTROMS)

     1       C          8.98219700  *  -0.10464300  *  -1.35110500  *
     2       N          7.55901200  *   0.00861300  *  -0.99889400  *
     3       C          7.12406500  *   1.42309100  *  -1.06054500  *
     4       C          5.79513900  *   1.68178700  *  -0.31574300  *
     5       N          5.08583000  *   0.43089600  *  -0.02767000  *
     6       C          5.80193800  *  -0.71971600  *   0.53005800  *
     7       C          7.31032600  *  -0.56702400  *   0.33293700  *
     8       C          3.65264500  *   0.40407600  *  -0.07191100  *
     9       C          2.92358500  *   0.53192900  *   1.11676200  *
    10       C          1.52793600  *   0.52068300  *   1.09511500  *
    11       C          0.83859600  *   0.36936500  *  -0.11868900  *
    12       N         -0.59770000  *   0.38269700  *  -0.16807400  *
    13       C         -1.44301200  *  -0.21887100  *   0.82274200  *
    14       N         -0.92995100  *  -1.06046400  *   1.76089200  *
    15       C         -1.73104900  *  -1.65933800  *   2.67863400  *
    16       C         -3.10500600  *  -1.42550800  *   2.66186300  *
    17       F         -3.90938400  *  -2.03152200  *   3.57102100  *
    18       C         -3.62719200  *  -0.56825400  *   1.68522400  *
    19       N         -5.04008900  *  -0.31756300  *   1.61356600  *
    20       C         -5.61992300  *   0.57445200  *   0.60195500  *
    21       C         -7.10807300  *   0.89772900  *   0.90891700  *
    22       C         -7.82398400  *  -0.29658200  *   0.31034100  *
    23       C         -7.24777200  *  -0.07533500  *  -1.07814100  *
    24       C         -7.65655700  *   1.36570200  *  -1.26384800  *
    25       C         -7.55616000  *   1.95602200  *  -0.06939600  *
    26       C         -5.71606900  *  -0.06319800  *  -0.82467700  *
    27       C         -5.03878900  *  -1.40276100  *  -1.07031400  *
    28       O         -4.22800100  *  -1.49511900  *  -2.03138500  *
    29       N         -5.29595600  *  -2.57026100  *  -0.28423900  *
    30       N         -2.78239500  *   0.01031200  *   0.78799000  *
    31       C          1.56747900  *   0.26391900  *  -1.31211500  *
    32       C          2.97226300  *   0.25789700  *  -1.29870000  *
    33       C          3.73083300  *   0.13529900  *  -2.59187000  *
    34       H          9.16928100  *   0.35831600  *  -2.34444900  *
    35       H          9.62656200  *   0.39182200  *  -0.59082400  *
    36       H          9.27023500  *  -1.17534900  *  -1.42628900  *
    37       H          7.90110200  *   2.10041200  *  -0.63619700  *
    38       H          6.99015400  *   1.70022600  *  -2.12916200  *
    39       H          5.15751000  *   2.36472600  *  -0.91951000  *
    40       H          6.00727200  *   2.19416400  *   0.64811900  *
    41       H          5.56995500  *  -0.82546100  *   1.61078900  *
    42       H          5.46635200  *  -1.64023100  *   0.00510100  *
    43       H          7.77868600  *  -1.57271500  *   0.42289300  *
    44       H          7.73488900  *   0.08553500  *   1.13040700  *
    45       H          3.44094500  *   0.65740000  *   2.05938800  *
    46       H          0.99035000  *   0.65942200  *   2.02331600  *
    47       H         -1.05776000  *   0.77399900  *  -1.02094900  *
    48       H         -1.29995100  *  -2.32205400  *   3.41728800  *
    49       H         -5.66080700  *  -0.71975800  *   2.35264500  *
    50       H         -5.03399200  *   1.52179400  *   0.57647000  *
    51       H         -7.34626100  *   1.12078300  *   1.97083000  *
    52       H         -8.93584400  *  -0.19618100  *   0.33981500  *
    53       H         -7.55456000  *  -1.25835300  *   0.78245600  *
    54       H         -7.60850400  *  -0.76506900  *  -1.87084600  *
    55       H         -8.03706100  *   1.82766600  *  -2.16850000  *
    56       H         -7.84908200  *   2.97538700  *   0.15796400  *
    57       H         -5.24745100  *   0.65344200  *  -1.54070400  *
    58       H         -5.88716300  *  -2.56125800  *   0.57060200  *
    59       H         -4.81703300  *  -3.46688100  *  -0.52464000  *
    60       H          1.03544500  *   0.16980900  *  -2.25142900  *
    61       H          4.09474700  *   1.13537300  *  -2.90536500  *
    62       H          4.59905700  *  -0.54627300  *  -2.46884600  *
    63       H          3.08814500  *  -0.27900400  *  -3.39753500  *



          CARTESIAN COORDINATES 

    NO.       ATOM           X           Y           Z

     1         C          8.9822     -0.1046     -1.3511
     2         N          7.5590      0.0086     -0.9989
     3         C          7.1241      1.4231     -1.0605
     4         C          5.7951      1.6818     -0.3157
     5         N          5.0858      0.4309     -0.0277
     6         C          5.8019     -0.7197      0.5301
     7         C          7.3103     -0.5670      0.3329
     8         C          3.6526      0.4041     -0.0719
     9         C          2.9236      0.5319      1.1168
    10         C          1.5279      0.5207      1.0951
    11         C          0.8386      0.3694     -0.1187
    12         N         -0.5977      0.3827     -0.1681
    13         C         -1.4430     -0.2189      0.8227
    14         N         -0.9300     -1.0605      1.7609
    15         C         -1.7310     -1.6593      2.6786
    16         C         -3.1050     -1.4255      2.6619
    17         F         -3.9094     -2.0315      3.5710
    18         C         -3.6272     -0.5683      1.6852
    19         N         -5.0401     -0.3176      1.6136
    20         C         -5.6199      0.5745      0.6020
    21         C         -7.1081      0.8977      0.9089
    22         C         -7.8240     -0.2966      0.3103
    23         C         -7.2478     -0.0753     -1.0781
    24         C         -7.6566      1.3657     -1.2638
    25         C         -7.5562      1.9560     -0.0694
    26         C         -5.7161     -0.0632     -0.8247
    27         C         -5.0388     -1.4028     -1.0703
    28         O         -4.2280     -1.4951     -2.0314
    29         N         -5.2960     -2.5703     -0.2842
    30         N         -2.7824      0.0103      0.7880
    31         C          1.5675      0.2639     -1.3121
    32         C          2.9723      0.2579     -1.2987
    33         C          3.7308      0.1353     -2.5919
    34         H          9.1693      0.3583     -2.3444
    35         H          9.6266      0.3918     -0.5908
    36         H          9.2702     -1.1753     -1.4263
    37         H          7.9011      2.1004     -0.6362
    38         H          6.9902      1.7002     -2.1292
    39         H          5.1575      2.3647     -0.9195
    40         H          6.0073      2.1942      0.6481
    41         H          5.5700     -0.8255      1.6108
    42         H          5.4664     -1.6402      0.0051
    43         H          7.7787     -1.5727      0.4229
    44         H          7.7349      0.0855      1.1304
    45         H          3.4409      0.6574      2.0594
    46         H          0.9903      0.6594      2.0233
    47         H         -1.0578      0.7740     -1.0209
    48         H         -1.3000     -2.3221      3.4173
    49         H         -5.6608     -0.7198      2.3526
    50         H         -5.0340      1.5218      0.5765
    51         H         -7.3463      1.1208      1.9708
    52         H         -8.9358     -0.1962      0.3398
    53         H         -7.5546     -1.2584      0.7825
    54         H         -7.6085     -0.7651     -1.8708
    55         H         -8.0371      1.8277     -2.1685
    56         H         -7.8491      2.9754      0.1580
    57         H         -5.2475      0.6534     -1.5407
    58         H         -5.8872     -2.5613      0.5706
    59         H         -4.8170     -3.4669     -0.5246
    60         H          1.0354      0.1698     -2.2514
    61         H          4.0947      1.1354     -2.9054
    62         H          4.5991     -0.5463     -2.4688
    63         H          3.0881     -0.2790     -3.3975

 General Reference for PM7:
 "Optimization of Parameters for Semiempirical Methods VI: More Modifications to the 
 NDDO Approximations and Re-optimization of Parameters", J. J. P. Stewart, J. Mol. Mod., 1:32, 19 (2013)
 https://link.springer.com/article/10.1007/s00894-012-1667-x

           Empirical Formula: C24 H30 N7 O F  =    63 atoms



      MOLECULAR POINT GROUP   :   C1  


      RHF CALCULATION, NO. OF DOUBLY OCCUPIED LEVELS = 87


          Geometry optimization using L-BFGS
 CYCLE:     1 TIME:   0.152 TIME LEFT:  2.00D  GRAD.:   222.378 HEAT:  54.02385
 CYCLE:     2 TIME:   0.051 TIME LEFT:  2.00D  GRAD.:   217.926 HEAT:  53.53435
 CYCLE:     3 TIME:   0.062 TIME LEFT:  2.00D  GRAD.:    70.692 HEAT:  39.05085
 CYCLE:     4 TIME:   0.059 TIME LEFT:  2.00D  GRAD.:   218.117 HEAT:  53.53013
 CYCLE:     5 TIME:   0.059 TIME LEFT:  2.00D  GRAD.:    70.810 HEAT:  39.05260
 CYCLE:     6 TIME:   0.051 TIME LEFT:  2.00D  GRAD.:    52.583 HEAT:  37.30520
 CYCLE:     7 TIME:   0.055 TIME LEFT:  2.00D  GRAD.:    46.778 HEAT:  34.66557
 CYCLE:     8 TIME:   0.059 TIME LEFT:  2.00D  GRAD.:    71.196 HEAT:  33.80383
 CYCLE:     9 TIME:   0.051 TIME LEFT:  2.00D  GRAD.:    34.181 HEAT:  32.85057
 CYCLE:    10 TIME:   0.055 TIME LEFT:  2.00D  GRAD.:    26.070 HEAT:  32.18236
 CYCLE:    11 TIME:   0.055 TIME LEFT:  2.00D  GRAD.:    29.272 HEAT:  31.72784
 CYCLE:    12 TIME:   0.059 TIME LEFT:  2.00D  GRAD.:    44.463 HEAT:  30.76344
 CYCLE:    13 TIME:   0.059 TIME LEFT:  2.00D  GRAD.:    60.269 HEAT:  30.56312
 CYCLE:    14 TIME:   0.055 TIME LEFT:  2.00D  GRAD.:    20.970 HEAT:  29.84641
 CYCLE:    15 TIME:   0.051 TIME LEFT:  2.00D  GRAD.:    18.533 HEAT:  29.55579
 CYCLE:    16 TIME:   0.055 TIME LEFT:  2.00D  GRAD.:    25.343 HEAT:  29.06365
 CYCLE:    17 TIME:   0.059 TIME LEFT:  2.00D  GRAD.:    25.322 HEAT:  28.48782
 CYCLE:    18 TIME:   0.055 TIME LEFT:  2.00D  GRAD.:    81.909 HEAT:  28.95735
 CYCLE:    19 TIME:   0.055 TIME LEFT:  2.00D  GRAD.:    14.901 HEAT:  27.94512
 CYCLE:    20 TIME:   0.051 TIME LEFT:  2.00D  GRAD.:    10.925 HEAT:  27.81962
 CYCLE:    21 TIME:   0.051 TIME LEFT:  2.00D  GRAD.:    15.014 HEAT:  27.64253
 CYCLE:    22 TIME:   0.055 TIME LEFT:  2.00D  GRAD.:    16.446 HEAT:  27.45991
 CYCLE:    23 TIME:   0.059 TIME LEFT:  2.00D  GRAD.:    39.235 HEAT:  27.45136
 CYCLE:    24 TIME:   0.051 TIME LEFT:  2.00D  GRAD.:    11.333 HEAT:  27.11454
 CYCLE:    25 TIME:   0.051 TIME LEFT:  2.00D  GRAD.:    10.146 HEAT:  27.02813
 CYCLE:    26 TIME:   0.055 TIME LEFT:  2.00D  GRAD.:    15.738 HEAT:  26.84431
 CYCLE:    27 TIME:   0.055 TIME LEFT:  2.00D  GRAD.:    30.862 HEAT:  26.73090
 CYCLE:    28 TIME:   0.051 TIME LEFT:  2.00D  GRAD.:    14.451 HEAT:  26.54021
 CYCLE:    29 TIME:   0.051 TIME LEFT:  2.00D  GRAD.:    11.741 HEAT:  26.38691
 CYCLE:    30 TIME:   0.051 TIME LEFT:  2.00D  GRAD.:    13.692 HEAT:  26.27502
 CYCLE:    31 TIME:   0.055 TIME LEFT:  2.00D  GRAD.:    15.785 HEAT:  26.04483
 CYCLE:    32 TIME:   0.055 TIME LEFT:  2.00D  GRAD.:    47.350 HEAT:  26.25670
 CYCLE:    33 TIME:   0.066 TIME LEFT:  2.00D  GRAD.:     8.182 HEAT:  25.86494
 CYCLE:    34 TIME:   0.055 TIME LEFT:  2.00D  GRAD.:     6.917 HEAT:  25.83021
 CYCLE:    35 TIME:   0.051 TIME LEFT:  2.00D  GRAD.:    11.002 HEAT:  25.73587
 CYCLE:    36 TIME:   0.051 TIME LEFT:  2.00D  GRAD.:    12.889 HEAT:  25.67194
 CYCLE:    37 TIME:   0.051 TIME LEFT:  2.00D  GRAD.:     8.128 HEAT:  25.61105
 CYCLE:    38 TIME:   0.051 TIME LEFT:  2.00D  GRAD.:     7.873 HEAT:  25.53797
 CYCLE:    39 TIME:   0.051 TIME LEFT:  2.00D  GRAD.:    11.428 HEAT:  25.49389
 CYCLE:    40 TIME:   0.055 TIME LEFT:  2.00D  GRAD.:     9.289 HEAT:  25.43514
 CYCLE:    41 TIME:   0.051 TIME LEFT:  2.00D  GRAD.:    10.000 HEAT:  25.34004
 CYCLE:    42 TIME:   0.051 TIME LEFT:  2.00D  GRAD.:    14.287 HEAT:  25.29385
 CYCLE:    43 TIME:   0.051 TIME LEFT:  2.00D  GRAD.:     7.719 HEAT:  25.24278
 CYCLE:    44 TIME:   0.051 TIME LEFT:  2.00D  GRAD.:     7.039 HEAT:  25.19052
 CYCLE:    45 TIME:   0.051 TIME LEFT:  2.00D  GRAD.:     8.431 HEAT:  25.14081
 CYCLE:    46 TIME:   0.062 TIME LEFT:  2.00D  GRAD.:    16.278 HEAT:  25.08214
 CYCLE:    47 TIME:   0.051 TIME LEFT:  2.00D  GRAD.:     7.787 HEAT:  25.00437
 CYCLE:    48 TIME:   0.051 TIME LEFT:  2.00D  GRAD.:     6.879 HEAT:  24.95906
 CYCLE:    49 TIME:   0.051 TIME LEFT:  2.00D  GRAD.:     9.597 HEAT:  24.88400
 CYCLE:    50 TIME:   0.055 TIME LEFT:  2.00D  GRAD.:    19.226 HEAT:  24.82950
 CYCLE:    51 TIME:   0.051 TIME LEFT:  2.00D  GRAD.:     9.990 HEAT:  24.74553
 CYCLE:    52 TIME:   0.051 TIME LEFT:  2.00D  GRAD.:     8.142 HEAT:  24.66422
 CYCLE:    53 TIME:   0.051 TIME LEFT:  2.00D  GRAD.:     9.273 HEAT:  24.60471
 CYCLE:    54 TIME:   0.059 TIME LEFT:  2.00D  GRAD.:    14.081 HEAT:  24.52219
 CYCLE:    55 TIME:   0.059 TIME LEFT:  2.00D  GRAD.:    11.217 HEAT:  24.44304
 CYCLE:    56 TIME:   0.051 TIME LEFT:  2.00D  GRAD.:     7.281 HEAT:  24.38829
 CYCLE:    57 TIME:   0.051 TIME LEFT:  2.00D  GRAD.:     9.175 HEAT:  24.31446
 CYCLE:    58 TIME:   0.055 TIME LEFT:  2.00D  GRAD.:    11.454 HEAT:  24.25062
 CYCLE:    59 TIME:   0.055 TIME LEFT:  2.00D  GRAD.:     9.924 HEAT:  24.17056
 CYCLE:    60 TIME:   0.051 TIME LEFT:  2.00D  GRAD.:     7.173 HEAT:  24.11539
 CYCLE:    61 TIME:   0.051 TIME LEFT:  2.00D  GRAD.:     7.745 HEAT:  24.06777
 CYCLE:    62 TIME:   0.051 TIME LEFT:  2.00D  GRAD.:     8.948 HEAT:  24.02068
 CYCLE:    63 TIME:   0.055 TIME LEFT:  2.00D  GRAD.:    10.521 HEAT:  23.97201
 CYCLE:    64 TIME:   0.051 TIME LEFT:  2.00D  GRAD.:     6.593 HEAT:  23.92769
 CYCLE:    65 TIME:   0.051 TIME LEFT:  2.00D  GRAD.:     7.015 HEAT:  23.88715
 CYCLE:    66 TIME:   0.051 TIME LEFT:  2.00D  GRAD.:     8.691 HEAT:  23.84455
 CYCLE:    67 TIME:   0.055 TIME LEFT:  2.00D  GRAD.:    15.846 HEAT:  23.81824
 CYCLE:    68 TIME:   0.055 TIME LEFT:  2.00D  GRAD.:     6.790 HEAT:  23.75780
 CYCLE:    69 TIME:   0.051 TIME LEFT:  2.00D  GRAD.:     6.274 HEAT:  23.72244
 CYCLE:    70 TIME:   0.051 TIME LEFT:  2.00D  GRAD.:     8.025 HEAT:  23.67007
 CYCLE:    71 TIME:   0.055 TIME LEFT:  2.00D  GRAD.:    13.223 HEAT:  23.59525
 CYCLE:    72 TIME:   0.055 TIME LEFT:  2.00D  GRAD.:    10.430 HEAT:  23.52419
 CYCLE:    73 TIME:   0.055 TIME LEFT:  2.00D  GRAD.:    10.278 HEAT:  23.46509
 CYCLE:    74 TIME:   0.059 TIME LEFT:  2.00D  GRAD.:     9.667 HEAT:  23.46303
 CYCLE:    75 TIME:   0.055 TIME LEFT:  2.00D  GRAD.:    13.801 HEAT:  23.34003
 CYCLE:    76 TIME:   0.051 TIME LEFT:  2.00D  GRAD.:    17.351 HEAT:  23.27977
 CYCLE:    77 TIME:   0.051 TIME LEFT:  2.00D  GRAD.:     7.882 HEAT:  23.20069
 CYCLE:    78 TIME:   0.055 TIME LEFT:  2.00D  GRAD.:     8.348 HEAT:  23.14516
 CYCLE:    79 TIME:   0.055 TIME LEFT:  2.00D  GRAD.:    11.641 HEAT:  23.04018
 CYCLE:    80 TIME:   0.055 TIME LEFT:  2.00D  GRAD.:    13.438 HEAT:  22.91087
 CYCLE:    81 TIME:   0.055 TIME LEFT:  2.00D  GRAD.:    10.986 HEAT:  22.78867
 CYCLE:    82 TIME:   0.059 TIME LEFT:  2.00D  GRAD.:    12.025 HEAT:  22.65642
 CYCLE:    83 TIME:   0.059 TIME LEFT:  2.00D  GRAD.:    16.298 HEAT:  22.51582
 CYCLE:    84 TIME:   0.055 TIME LEFT:  2.00D  GRAD.:    22.362 HEAT:  22.71088
 CYCLE:    85 TIME:   0.059 TIME LEFT:  2.00D  GRAD.:    32.402 HEAT:  22.41324
 CYCLE:    86 TIME:   0.055 TIME LEFT:  2.00D  GRAD.:    11.216 HEAT:  22.23706
 CYCLE:    87 TIME:   0.051 TIME LEFT:  2.00D  GRAD.:     7.555 HEAT:  22.18280
 CYCLE:    88 TIME:   0.055 TIME LEFT:  2.00D  GRAD.:     9.280 HEAT:  22.04147
 CYCLE:    89 TIME:   0.059 TIME LEFT:  2.00D  GRAD.:    16.454 HEAT:  21.87565
 CYCLE:    90 TIME:   0.059 TIME LEFT:  2.00D  GRAD.:    46.226 HEAT:  22.09934
 CYCLE:    91 TIME:   0.055 TIME LEFT:  2.00D  GRAD.:     9.432 HEAT:  21.65647
 CYCLE:    92 TIME:   0.059 TIME LEFT:  2.00D  GRAD.:     9.006 HEAT:  21.59214
 CYCLE:    93 TIME:   0.055 TIME LEFT:  2.00D  GRAD.:    17.010 HEAT:  21.44131
 CYCLE:    94 TIME:   0.059 TIME LEFT:  2.00D  GRAD.:    17.050 HEAT:  21.33427
 CYCLE:    95 TIME:   0.051 TIME LEFT:  2.00D  GRAD.:    10.466 HEAT:  21.20973
 CYCLE:    96 TIME:   0.055 TIME LEFT:  2.00D  GRAD.:    10.188 HEAT:  21.09258
 CYCLE:    97 TIME:   0.055 TIME LEFT:  2.00D  GRAD.:    17.563 HEAT:  21.01123
 CYCLE:    98 TIME:   0.059 TIME LEFT:  2.00D  GRAD.:     8.567 HEAT:  20.92277
 CYCLE:    99 TIME:   0.051 TIME LEFT:  2.00D  GRAD.:     9.459 HEAT:  20.85445
 CYCLE:   100 TIME:   0.055 TIME LEFT:  2.00D  GRAD.:    13.012 HEAT:  20.81603
 CYCLE:   101 TIME:   0.051 TIME LEFT:  2.00D  GRAD.:     8.611 HEAT:  20.72723
 CYCLE:   102 TIME:   0.055 TIME LEFT:  2.00D  GRAD.:     8.691 HEAT:  20.69069
 CYCLE:   103 TIME:   0.055 TIME LEFT:  2.00D  GRAD.:     5.803 HEAT:  20.65918
 CYCLE:   104 TIME:   0.055 TIME LEFT:  2.00D  GRAD.:     5.412 HEAT:  20.54585
 CYCLE:   105 TIME:   0.051 TIME LEFT:  2.00D  GRAD.:    10.306 HEAT:  20.52293
 CYCLE:   106 TIME:   0.051 TIME LEFT:  2.00D  GRAD.:     5.663 HEAT:  20.49438
 CYCLE:   107 TIME:   0.051 TIME LEFT:  2.00D  GRAD.:     5.365 HEAT:  20.46330
 CYCLE:   108 TIME:   0.051 TIME LEFT:  2.00D  GRAD.:     6.269 HEAT:  20.43913
 CYCLE:   109 TIME:   0.055 TIME LEFT:  2.00D  GRAD.:    10.531 HEAT:  20.39598
 CYCLE:   110 TIME:   0.055 TIME LEFT:  2.00D  GRAD.:    13.526 HEAT:  20.38287
 CYCLE:   111 TIME:   0.055 TIME LEFT:  2.00D  GRAD.:     7.675 HEAT:  20.32261
 CYCLE:   112 TIME:   0.055 TIME LEFT:  2.00D  GRAD.:     8.324 HEAT:  20.28542
 CYCLE:   113 TIME:   0.051 TIME LEFT:  2.00D  GRAD.:     7.236 HEAT:  20.24085
 CYCLE:   114 TIME:   0.059 TIME LEFT:  2.00D  GRAD.:     9.588 HEAT:  20.19262
 CYCLE:   115 TIME:   0.055 TIME LEFT:  2.00D  GRAD.:    13.606 HEAT:  20.12857
 CYCLE:   116 TIME:   0.059 TIME LEFT:  2.00D  GRAD.:    14.597 HEAT:  20.06632
 CYCLE:   117 TIME:   0.059 TIME LEFT:  2.00D  GRAD.:    16.309 HEAT:  19.96005
 CYCLE:   118 TIME:   0.059 TIME LEFT:  2.00D  GRAD.:    18.359 HEAT:  20.00713
 CYCLE:   119 TIME:   0.059 TIME LEFT:  2.00D  GRAD.:    17.472 HEAT:  19.82973
 CYCLE:   120 TIME:   0.055 TIME LEFT:  2.00D  GRAD.:    20.359 HEAT:  19.79694
 CYCLE:   121 TIME:   0.055 TIME LEFT:  2.00D  GRAD.:     7.799 HEAT:  19.70892
 CYCLE:   122 TIME:   0.055 TIME LEFT:  2.00D  GRAD.:    10.193 HEAT:  19.67636
 CYCLE:   123 TIME:   0.059 TIME LEFT:  2.00D  GRAD.:     9.501 HEAT:  19.61193
 CYCLE:   124 TIME:   0.055 TIME LEFT:  2.00D  GRAD.:     9.541 HEAT:  19.52666
 CYCLE:   125 TIME:   0.059 TIME LEFT:  2.00D  GRAD.:    12.811 HEAT:  19.46758
 CYCLE:   126 TIME:   0.055 TIME LEFT:  2.00D  GRAD.:    17.745 HEAT:  19.39198
 CYCLE:   127 TIME:   0.051 TIME LEFT:  2.00D  GRAD.:     7.244 HEAT:  19.31443
 CYCLE:   128 TIME:   0.055 TIME LEFT:  2.00D  GRAD.:     8.168 HEAT:  19.24668
 CYCLE:   129 TIME:   0.055 TIME LEFT:  2.00D  GRAD.:    11.913 HEAT:  19.17619
 CYCLE:   130 TIME:   0.055 TIME LEFT:  2.00D  GRAD.:    13.321 HEAT:  19.07510
 CYCLE:   131 TIME:   0.059 TIME LEFT:  2.00D  GRAD.:    14.347 HEAT:  18.96692
 CYCLE:   132 TIME:   0.059 TIME LEFT:  2.00D  GRAD.:     9.220 HEAT:  18.87799
 CYCLE:   133 TIME:   0.051 TIME LEFT:  2.00D  GRAD.:    10.421 HEAT:  18.81270
 CYCLE:   134 TIME:   0.059 TIME LEFT:  2.00D  GRAD.:    15.759 HEAT:  18.77307
 CYCLE:   135 TIME:   0.055 TIME LEFT:  2.00D  GRAD.:    14.066 HEAT:  18.66327
 CYCLE:   136 TIME:   0.051 TIME LEFT:  2.00D  GRAD.:     6.112 HEAT:  18.59704
 CYCLE:   137 TIME:   0.055 TIME LEFT:  2.00D  GRAD.:     7.847 HEAT:  18.54511
 CYCLE:   138 TIME:   0.055 TIME LEFT:  2.00D  GRAD.:    12.164 HEAT:  18.48896
 CYCLE:   139 TIME:   0.059 TIME LEFT:  2.00D  GRAD.:    11.313 HEAT:  18.42641
 CYCLE:   140 TIME:   0.051 TIME LEFT:  2.00D  GRAD.:     8.365 HEAT:  18.34032
 CYCLE:   141 TIME:   0.070 TIME LEFT:  2.00D  GRAD.:     9.785 HEAT:  18.26798
 CYCLE:   142 TIME:   0.062 TIME LEFT:  2.00D  GRAD.:    12.220 HEAT:  18.17164
 CYCLE:   143 TIME:   0.070 TIME LEFT:  2.00D  GRAD.:     9.722 HEAT:  18.07717
 CYCLE:   144 TIME:   0.059 TIME LEFT:  2.00D  GRAD.:     9.077 HEAT:  17.98483
 CYCLE:   145 TIME:   0.074 TIME LEFT:  2.00D  GRAD.:    11.770 HEAT:  17.92201
 CYCLE:   146 TIME:   0.051 TIME LEFT:  2.00D  GRAD.:    21.678 HEAT:  17.90420
 CYCLE:   147 TIME:   0.051 TIME LEFT:  2.00D  GRAD.:     6.646 HEAT:  17.80906
 CYCLE:   148 TIME:   0.051 TIME LEFT:  2.00D  GRAD.:     5.267 HEAT:  17.78354
 CYCLE:   149 TIME:   0.055 TIME LEFT:  2.00D  GRAD.:     6.914 HEAT:  17.73988
 CYCLE:   150 TIME:   0.055 TIME LEFT:  2.00D  GRAD.:    11.146 HEAT:  17.69288
 CYCLE:   151 TIME:   0.051 TIME LEFT:  2.00D  GRAD.:     7.108 HEAT:  17.64719
 CYCLE:   152 TIME:   0.051 TIME LEFT:  2.00D  GRAD.:     5.378 HEAT:  17.61481
 CYCLE:   153 TIME:   0.051 TIME LEFT:  2.00D  GRAD.:     8.116 HEAT:  17.57443
 CYCLE:   154 TIME:   0.055 TIME LEFT:  2.00D  GRAD.:    12.083 HEAT:  17.54023
 CYCLE:   155 TIME:   0.055 TIME LEFT:  2.00D  GRAD.:    10.849 HEAT:  17.48670
 CYCLE:   156 TIME:   0.055 TIME LEFT:  2.00D  GRAD.:     8.349 HEAT:  17.40807
 CYCLE:   157 TIME:   0.051 TIME LEFT:  2.00D  GRAD.:     7.761 HEAT:  17.36750
 CYCLE:   158 TIME:   0.055 TIME LEFT:  2.00D  GRAD.:     8.799 HEAT:  17.31095
 CYCLE:   159 TIME:   0.055 TIME LEFT:  2.00D  GRAD.:    11.545 HEAT:  17.22879
 CYCLE:   160 TIME:   0.062 TIME LEFT:  2.00D  GRAD.:     9.009 HEAT:  17.15153
 CYCLE:   161 TIME:   0.055 TIME LEFT:  2.00D  GRAD.:     8.346 HEAT:  17.08847
 CYCLE:   162 TIME:   0.051 TIME LEFT:  2.00D  GRAD.:    12.175 HEAT:  17.04677
 CYCLE:   163 TIME:   0.059 TIME LEFT:  2.00D  GRAD.:     8.374 HEAT:  16.97504
 CYCLE:   164 TIME:   0.055 TIME LEFT:  2.00D  GRAD.:    10.566 HEAT:  16.90489
 CYCLE:   165 TIME:   0.055 TIME LEFT:  2.00D  GRAD.:    10.306 HEAT:  16.84032
 CYCLE:   166 TIME:   0.055 TIME LEFT:  2.00D  GRAD.:     8.414 HEAT:  16.75696
 CYCLE:   167 TIME:   0.059 TIME LEFT:  2.00D  GRAD.:    10.737 HEAT:  16.65492
 CYCLE:   168 TIME:   0.055 TIME LEFT:  2.00D  GRAD.:    18.057 HEAT:  16.59077
 CYCLE:   169 TIME:   0.059 TIME LEFT:  2.00D  GRAD.:    17.361 HEAT:  16.53816
 CYCLE:   170 TIME:   0.059 TIME LEFT:  2.00D  GRAD.:    27.140 HEAT:  16.49441
 CYCLE:   171 TIME:   0.051 TIME LEFT:  2.00D  GRAD.:     9.184 HEAT:  16.35489
 CYCLE:   172 TIME:   0.055 TIME LEFT:  2.00D  GRAD.:     7.815 HEAT:  16.29352
 CYCLE:   173 TIME:   0.055 TIME LEFT:  2.00D  GRAD.:    12.610 HEAT:  16.19155
 CYCLE:   174 TIME:   0.055 TIME LEFT:  2.00D  GRAD.:    15.921 HEAT:  16.07651
 CYCLE:   175 TIME:   0.059 TIME LEFT:  2.00D  GRAD.:    22.055 HEAT:  15.97204
 CYCLE:   176 TIME:   0.055 TIME LEFT:  2.00D  GRAD.:     8.560 HEAT:  15.84735
 CYCLE:   177 TIME:   0.055 TIME LEFT:  2.00D  GRAD.:    14.415 HEAT:  15.77821
 CYCLE:   178 TIME:   0.055 TIME LEFT:  2.00D  GRAD.:    12.989 HEAT:  15.68104
 CYCLE:   179 TIME:   0.062 TIME LEFT:  2.00D  GRAD.:    18.146 HEAT:  15.51446
 CYCLE:   180 TIME:   0.055 TIME LEFT:  2.00D  GRAD.:    14.105 HEAT:  15.38046
 CYCLE:   181 TIME:   0.059 TIME LEFT:  2.00D  GRAD.:    19.875 HEAT:  15.30622
 CYCLE:   182 TIME:   0.051 TIME LEFT:  2.00D  GRAD.:    13.351 HEAT:  15.15101
 CYCLE:   183 TIME:   0.059 TIME LEFT:  2.00D  GRAD.:    12.325 HEAT:  15.01128
 CYCLE:   184 TIME:   0.062 TIME LEFT:  2.00D  GRAD.:    14.897 HEAT:  14.84902
 CYCLE:   185 TIME:   0.055 TIME LEFT:  2.00D  GRAD.:    18.601 HEAT:  14.63095
 CYCLE:   186 TIME:   0.059 TIME LEFT:  2.00D  GRAD.:    19.546 HEAT:  14.40198
 CYCLE:   187 TIME:   0.055 TIME LEFT:  2.00D  GRAD.:    20.567 HEAT:  14.29961
 CYCLE:   188 TIME:   0.059 TIME LEFT:  2.00D  GRAD.:    20.444 HEAT:  14.11313
 CYCLE:   189 TIME:   0.051 TIME LEFT:  2.00D  GRAD.:    23.708 HEAT:  14.02299
 CYCLE:   190 TIME:   0.055 TIME LEFT:  2.00D  GRAD.:    13.434 HEAT:  13.86988
 CYCLE:   191 TIME:   0.059 TIME LEFT:  2.00D  GRAD.:    16.619 HEAT:  13.71727
 CYCLE:   192 TIME:   0.055 TIME LEFT:  2.00D  GRAD.:    16.832 HEAT:  13.56690
 CYCLE:   193 TIME:   0.059 TIME LEFT:  2.00D  GRAD.:    21.451 HEAT:  13.34965
 CYCLE:   194 TIME:   0.055 TIME LEFT:  2.00D  GRAD.:    18.071 HEAT:  13.17462
 CYCLE:   195 TIME:   0.055 TIME LEFT:  2.00D  GRAD.:    11.204 HEAT:  13.03007
 CYCLE:   196 TIME:   0.055 TIME LEFT:  2.00D  GRAD.:    13.471 HEAT:  12.88552
 CYCLE:   197 TIME:   0.059 TIME LEFT:  2.00D  GRAD.:    17.267 HEAT:  12.76266
 CYCLE:   198 TIME:   0.059 TIME LEFT:  2.00D  GRAD.:    24.326 HEAT:  12.75083
 CYCLE:   199 TIME:   0.055 TIME LEFT:  2.00D  GRAD.:    11.236 HEAT:  12.54151
 CYCLE:   200 TIME:   0.055 TIME LEFT:  2.00D  GRAD.:     8.697 HEAT:  12.43615
 CYCLE:   201 TIME:   0.059 TIME LEFT:  2.00D  GRAD.:    14.767 HEAT:  12.29025
 CYCLE:   202 TIME:   0.055 TIME LEFT:  2.00D  GRAD.:    18.135 HEAT:  12.14995
 CYCLE:   203 TIME:   0.059 TIME LEFT:  2.00D  GRAD.:    14.714 HEAT:  11.97246
 CYCLE:   204 TIME:   0.051 TIME LEFT:  2.00D  GRAD.:    17.047 HEAT:  11.89299
 CYCLE:   205 TIME:   0.062 TIME LEFT:  2.00D  GRAD.:    10.003 HEAT:  11.77580
 CYCLE:   206 TIME:   0.055 TIME LEFT:  2.00D  GRAD.:    13.334 HEAT:  11.70607
 CYCLE:   207 TIME:   0.059 TIME LEFT:  2.00D  GRAD.:    41.468 HEAT:  11.78626
 CYCLE:   208 TIME:   0.059 TIME LEFT:  2.00D  GRAD.:    22.488 HEAT:  11.52199
 CYCLE:   209 TIME:   0.051 TIME LEFT:  2.00D  GRAD.:    14.423 HEAT:  11.40101
 CYCLE:   210 TIME:   0.055 TIME LEFT:  2.00D  GRAD.:    16.862 HEAT:  11.23772
 CYCLE:   211 TIME:   0.059 TIME LEFT:  2.00D  GRAD.:    31.974 HEAT:  11.05885
 CYCLE:   212 TIME:   0.055 TIME LEFT:  2.00D  GRAD.:    23.836 HEAT:  10.84494
 CYCLE:   213 TIME:   0.055 TIME LEFT:  2.00D  GRAD.:    10.182 HEAT:  10.69717
 CYCLE:   214 TIME:   0.055 TIME LEFT:  2.00D  GRAD.:     9.555 HEAT:  10.60091
 CYCLE:   215 TIME:   0.062 TIME LEFT:  2.00D  GRAD.:    15.256 HEAT:  10.46809
 CYCLE:   216 TIME:   0.055 TIME LEFT:  2.00D  GRAD.:    18.925 HEAT:  10.39144
 CYCLE:   217 TIME:   0.051 TIME LEFT:  2.00D  GRAD.:     8.615 HEAT:  10.31766
 CYCLE:   218 TIME:   0.059 TIME LEFT:  2.00D  GRAD.:     7.216 HEAT:  10.26687
 CYCLE:   219 TIME:   0.051 TIME LEFT:  2.00D  GRAD.:     8.523 HEAT:  10.22649
 CYCLE:   220 TIME:   0.055 TIME LEFT:  2.00D  GRAD.:    15.873 HEAT:  10.15531
 CYCLE:   221 TIME:   0.055 TIME LEFT:  2.00D  GRAD.:    11.786 HEAT:  10.10081
 CYCLE:   222 TIME:   0.051 TIME LEFT:  2.00D  GRAD.:     7.115 HEAT:  10.04996
 CYCLE:   223 TIME:   0.055 TIME LEFT:  2.00D  GRAD.:     6.406 HEAT:  10.01550
 CYCLE:   224 TIME:   0.051 TIME LEFT:  2.00D  GRAD.:     6.530 HEAT:  9.976663
 CYCLE:   225 TIME:   0.059 TIME LEFT:  2.00D  GRAD.:    12.424 HEAT:  9.934481
 CYCLE:   226 TIME:   0.055 TIME LEFT:  2.00D  GRAD.:    23.825 HEAT:  9.949312
 CYCLE:   227 TIME:   0.055 TIME LEFT:  2.00D  GRAD.:     5.444 HEAT:  9.852558
 CYCLE:   228 TIME:   0.051 TIME LEFT:  2.00D  GRAD.:     4.821 HEAT:  9.830324
 CYCLE:   229 TIME:   0.055 TIME LEFT:  2.00D  GRAD.:     7.070 HEAT:  9.804976
 CYCLE:   230 TIME:   0.055 TIME LEFT:  2.00D  GRAD.:    10.757 HEAT:  9.768922
 CYCLE:   231 TIME:   0.051 TIME LEFT:  2.00D  GRAD.:     5.125 HEAT:  9.732153
 CYCLE:   232 TIME:   0.051 TIME LEFT:  2.00D  GRAD.:     4.410 HEAT:  9.710889
 CYCLE:   233 TIME:   0.055 TIME LEFT:  2.00D  GRAD.:     6.133 HEAT:  9.668105
 CYCLE:   234 TIME:   0.055 TIME LEFT:  2.00D  GRAD.:    13.992 HEAT:  9.652704
 CYCLE:   235 TIME:   0.051 TIME LEFT:  2.00D  GRAD.:     5.905 HEAT:  9.611302
 CYCLE:   236 TIME:   0.051 TIME LEFT:  2.00D  GRAD.:     4.453 HEAT:  9.585141
 CYCLE:   237 TIME:   0.059 TIME LEFT:  2.00D  GRAD.:     5.458 HEAT:  9.562051
 CYCLE:   238 TIME:   0.055 TIME LEFT:  2.00D  GRAD.:     9.225 HEAT:  9.531938
 CYCLE:   239 TIME:   0.055 TIME LEFT:  2.00D  GRAD.:     8.115 HEAT:  9.501219
 CYCLE:   240 TIME:   0.051 TIME LEFT:  2.00D  GRAD.:     4.910 HEAT:  9.468724
 CYCLE:   241 TIME:   0.055 TIME LEFT:  2.00D  GRAD.:     5.465 HEAT:  9.445368
 CYCLE:   242 TIME:   0.051 TIME LEFT:  2.00D  GRAD.:     7.301 HEAT:  9.417568
 CYCLE:   243 TIME:   0.055 TIME LEFT:  2.00D  GRAD.:     4.575 HEAT:  9.391930
 CYCLE:   244 TIME:   0.055 TIME LEFT:  2.00D  GRAD.:     6.423 HEAT:  9.380586
 CYCLE:   245 TIME:   0.051 TIME LEFT:  2.00D  GRAD.:     3.930 HEAT:  9.369133
 CYCLE:   246 TIME:   0.051 TIME LEFT:  2.00D  GRAD.:     3.174 HEAT:  9.359770
 CYCLE:   247 TIME:   0.051 TIME LEFT:  2.00D  GRAD.:     4.021 HEAT:  9.349474
 CYCLE:   248 TIME:   0.055 TIME LEFT:  2.00D  GRAD.:     4.725 HEAT:  9.338102
 CYCLE:   249 TIME:   0.051 TIME LEFT:  2.00D  GRAD.:     3.503 HEAT:  9.327479
 CYCLE:   250 TIME:   0.055 TIME LEFT:  2.00D  GRAD.:     3.800 HEAT:  9.314904
 CYCLE:   251 TIME:   0.051 TIME LEFT:  2.00D  GRAD.:     5.816 HEAT:  9.305703
 CYCLE:   252 TIME:   0.051 TIME LEFT:  2.00D  GRAD.:     3.652 HEAT:  9.294529
 CYCLE:   253 TIME:   0.055 TIME LEFT:  2.00D  GRAD.:     3.420 HEAT:  9.280785
 CYCLE:   254 TIME:   0.051 TIME LEFT:  2.00D  GRAD.:     4.204 HEAT:  9.268432
 CYCLE:   255 TIME:   0.055 TIME LEFT:  2.00D  GRAD.:     6.255 HEAT:  9.256137
 CYCLE:   256 TIME:   0.055 TIME LEFT:  2.00D  GRAD.:     4.825 HEAT:  9.241737
 CYCLE:   257 TIME:   0.051 TIME LEFT:  2.00D  GRAD.:     3.531 HEAT:  9.228557
 CYCLE:   258 TIME:   0.051 TIME LEFT:  2.00D  GRAD.:     3.272 HEAT:  9.216125
 CYCLE:   259 TIME:   0.055 TIME LEFT:  2.00D  GRAD.:     3.229 HEAT:  9.207600
 CYCLE:   260 TIME:   0.059 TIME LEFT:  2.00D  GRAD.:     3.207 HEAT:  9.195464
 CYCLE:   261 TIME:   0.051 TIME LEFT:  2.00D  GRAD.:     5.153 HEAT:  9.189143
 CYCLE:   262 TIME:   0.051 TIME LEFT:  2.00D  GRAD.:     3.033 HEAT:  9.180817
 CYCLE:   263 TIME:   0.051 TIME LEFT:  2.00D  GRAD.:     2.638 HEAT:  9.174549
 CYCLE:   264 TIME:   0.055 TIME LEFT:  2.00D  GRAD.:     2.805 HEAT:  9.168648
 CYCLE:   265 TIME:   0.055 TIME LEFT:  2.00D  GRAD.:     4.145 HEAT:  9.161455
 CYCLE:   266 TIME:   0.051 TIME LEFT:  2.00D  GRAD.:     2.658 HEAT:  9.154289
 CYCLE:   267 TIME:   0.055 TIME LEFT:  2.00D  GRAD.:     2.845 HEAT:  9.146553
 CYCLE:   268 TIME:   0.051 TIME LEFT:  2.00D  GRAD.:     3.186 HEAT:  9.138498
 CYCLE:   269 TIME:   0.055 TIME LEFT:  2.00D  GRAD.:     7.233 HEAT:  9.135853
 CYCLE:   270 TIME:   0.055 TIME LEFT:  2.00D  GRAD.:     2.365 HEAT:  9.125036
 CYCLE:   271 TIME:   0.051 TIME LEFT:  2.00D  GRAD.:     2.131 HEAT:  9.120721
 CYCLE:   272 TIME:   0.055 TIME LEFT:  2.00D  GRAD.:     2.200 HEAT:  9.113712
 CYCLE:   273 TIME:   0.055 TIME LEFT:  2.00D  GRAD.:     6.744 HEAT:  9.110291
 CYCLE:   274 TIME:   0.051 TIME LEFT:  2.00D  GRAD.:     2.178 HEAT:  9.100635
 CYCLE:   275 TIME:   0.055 TIME LEFT:  2.00D  GRAD.:     1.929 HEAT:  9.096975
 CYCLE:   276 TIME:   0.055 TIME LEFT:  2.00D  GRAD.:     2.629 HEAT:  9.089935
 CYCLE:   277 TIME:   0.055 TIME LEFT:  2.00D  GRAD.:     5.850 HEAT:  9.082576
 CYCLE:   278 TIME:   0.055 TIME LEFT:  2.00D  GRAD.:     3.665 HEAT:  9.071988
 CYCLE:   279 TIME:   0.051 TIME LEFT:  2.00D  GRAD.:     3.057 HEAT:  9.060288
 CYCLE:   280 TIME:   0.051 TIME LEFT:  2.00D  GRAD.:     4.436 HEAT:  9.047617
 CYCLE:   281 TIME:   0.055 TIME LEFT:  2.00D  GRAD.:     6.142 HEAT:  9.036621
 CYCLE:   282 TIME:   0.051 TIME LEFT:  2.00D  GRAD.:     3.943 HEAT:  9.023797
 CYCLE:   283 TIME:   0.051 TIME LEFT:  2.00D  GRAD.:     3.687 HEAT:  9.009510
 CYCLE:   284 TIME:   0.051 TIME LEFT:  2.00D  GRAD.:     4.404 HEAT:  9.000724
 CYCLE:   285 TIME:   0.051 TIME LEFT:  2.00D  GRAD.:     3.806 HEAT:  8.991070
 CYCLE:   286 TIME:   0.059 TIME LEFT:  2.00D  GRAD.:     4.866 HEAT:  8.975725
 CYCLE:   287 TIME:   0.051 TIME LEFT:  2.00D  GRAD.:     6.391 HEAT:  8.962652
 CYCLE:   288 TIME:   0.051 TIME LEFT:  2.00D  GRAD.:     4.627 HEAT:  8.947642
 CYCLE:   289 TIME:   0.051 TIME LEFT:  2.00D  GRAD.:     3.993 HEAT:  8.925344
 CYCLE:   290 TIME:   0.055 TIME LEFT:  2.00D  GRAD.:     5.241 HEAT:  8.910550
 CYCLE:   291 TIME:   0.055 TIME LEFT:  2.00D  GRAD.:     4.171 HEAT:  8.893511
 CYCLE:   292 TIME:   0.059 TIME LEFT:  2.00D  GRAD.:     5.417 HEAT:  8.870968
 CYCLE:   293 TIME:   0.051 TIME LEFT:  2.00D  GRAD.:     7.501 HEAT:  8.857957
 CYCLE:   294 TIME:   0.051 TIME LEFT:  2.00D  GRAD.:     3.668 HEAT:  8.842023
 CYCLE:   295 TIME:   0.051 TIME LEFT:  2.00D  GRAD.:     3.856 HEAT:  8.832284
 CYCLE:   296 TIME:   0.066 TIME LEFT:  2.00D  GRAD.:     3.354 HEAT:  8.821889
 CYCLE:   297 TIME:   0.059 TIME LEFT:  2.00D  GRAD.:     9.350 HEAT:  8.801923
 CYCLE:   298 TIME:   0.055 TIME LEFT:  2.00D  GRAD.:     6.489 HEAT:  8.784738
 CYCLE:   299 TIME:   0.055 TIME LEFT:  2.00D  GRAD.:     4.429 HEAT:  8.771460
 CYCLE:   300 TIME:   0.051 TIME LEFT:  2.00D  GRAD.:     2.783 HEAT:  8.750610
 CYCLE:   301 TIME:   0.055 TIME LEFT:  2.00D  GRAD.:     4.999 HEAT:  8.731455
 CYCLE:   302 TIME:   0.055 TIME LEFT:  2.00D  GRAD.:     6.335 HEAT:  8.723064
 CYCLE:   303 TIME:   0.051 TIME LEFT:  2.00D  GRAD.:     4.468 HEAT:  8.704762
 CYCLE:   304 TIME:   0.051 TIME LEFT:  2.00D  GRAD.:     4.191 HEAT:  8.688354
 CYCLE:   305 TIME:   0.055 TIME LEFT:  2.00D  GRAD.:     5.614 HEAT:  8.674084
 CYCLE:   306 TIME:   0.055 TIME LEFT:  2.00D  GRAD.:     4.672 HEAT:  8.652578
 CYCLE:   307 TIME:   0.055 TIME LEFT:  2.00D  GRAD.:     4.929 HEAT:  8.637547
 CYCLE:   308 TIME:   0.051 TIME LEFT:  2.00D  GRAD.:     5.051 HEAT:  8.621771
 CYCLE:   309 TIME:   0.055 TIME LEFT:  2.00D  GRAD.:     4.054 HEAT:  8.604682
 CYCLE:   310 TIME:   0.051 TIME LEFT:  2.00D  GRAD.:     4.127 HEAT:  8.581385
 CYCLE:   311 TIME:   0.055 TIME LEFT:  2.00D  GRAD.:     8.332 HEAT:  8.565826
 CYCLE:   312 TIME:   0.051 TIME LEFT:  2.00D  GRAD.:     6.004 HEAT:  8.546045
 CYCLE:   313 TIME:   0.051 TIME LEFT:  2.00D  GRAD.:     3.763 HEAT:  8.532251
 CYCLE:   314 TIME:   0.051 TIME LEFT:  2.00D  GRAD.:     3.391 HEAT:  8.520181
 CYCLE:   315 TIME:   0.059 TIME LEFT:  2.00D  GRAD.:     4.978 HEAT:  8.508210
 CYCLE:   316 TIME:   0.059 TIME LEFT:  2.00D  GRAD.:     4.277 HEAT:  8.497528
 CYCLE:   317 TIME:   0.051 TIME LEFT:  2.00D  GRAD.:     6.582 HEAT:  8.490494
 CYCLE:   318 TIME:   0.051 TIME LEFT:  2.00D  GRAD.:     3.619 HEAT:  8.479364
 CYCLE:   319 TIME:   0.055 TIME LEFT:  2.00D  GRAD.:     2.369 HEAT:  8.474739
 CYCLE:   320 TIME:   0.051 TIME LEFT:  2.00D  GRAD.:     2.223 HEAT:  8.467477
 CYCLE:   321 TIME:   0.051 TIME LEFT:  2.00D  GRAD.:     4.700 HEAT:  8.459420
 CYCLE:   322 TIME:   0.051 TIME LEFT:  2.00D  GRAD.:     4.139 HEAT:  8.448139
 CYCLE:   323 TIME:   0.055 TIME LEFT:  2.00D  GRAD.:     4.445 HEAT:  8.440651
 CYCLE:   324 TIME:   0.059 TIME LEFT:  2.00D  GRAD.:    31.260 HEAT:  8.586266
 CYCLE:   325 TIME:   0.055 TIME LEFT:  2.00D  GRAD.:     4.250 HEAT:  8.419804
 CYCLE:   326 TIME:   0.055 TIME LEFT:  2.00D  GRAD.:     2.734 HEAT:  8.416742
 CYCLE:   327 TIME:   0.055 TIME LEFT:  2.00D  GRAD.:     2.867 HEAT:  8.399277
 CYCLE:   328 TIME:   0.059 TIME LEFT:  2.00D  GRAD.:     5.520 HEAT:  8.380835
 CYCLE:   329 TIME:   0.051 TIME LEFT:  2.00D  GRAD.:     8.843 HEAT:  8.376783
 CYCLE:   330 TIME:   0.055 TIME LEFT:  2.00D  GRAD.:     2.588 HEAT:  8.364083
 CYCLE:   331 TIME:   0.055 TIME LEFT:  2.00D  GRAD.:     1.926 HEAT:  8.359831
 CYCLE:   332 TIME:   0.059 TIME LEFT:  2.00D  GRAD.:     6.728 HEAT:  8.366196
 CYCLE:   333 TIME:   0.055 TIME LEFT:  2.00D  GRAD.:     4.907 HEAT:  8.350745
 CYCLE:   334 TIME:   0.051 TIME LEFT:  2.00D  GRAD.:     4.105 HEAT:  8.349615
 CYCLE:   335 TIME:   0.051 TIME LEFT:  2.00D  GRAD.:     1.626 HEAT:  8.344188
 CYCLE:   336 TIME:   0.062 TIME LEFT:  2.00D  GRAD.:     2.747 HEAT:  8.341476
 CYCLE:   337 TIME:   0.051 TIME LEFT:  2.00D  GRAD.:     1.950 HEAT:  8.336770
 CYCLE:   338 TIME:   0.055 TIME LEFT:  2.00D  GRAD.:     3.664 HEAT:  8.332535
 CYCLE:   339 TIME:   0.051 TIME LEFT:  2.00D  GRAD.:     3.030 HEAT:  8.328200
 CYCLE:   340 TIME:   0.051 TIME LEFT:  2.00D  GRAD.:     2.255 HEAT:  8.323861
 CYCLE:   341 TIME:   0.059 TIME LEFT:  2.00D  GRAD.:     3.546 HEAT:  8.327350
 CYCLE:   342 TIME:   0.055 TIME LEFT:  2.00D  GRAD.:     7.289 HEAT:  8.320113
 CYCLE:   343 TIME:   0.055 TIME LEFT:  2.00D  GRAD.:     2.023 HEAT:  8.312305
 CYCLE:   344 TIME:   0.062 TIME LEFT:  2.00D  GRAD.:     1.414 HEAT:  8.310175
 CYCLE:   345 TIME:   0.062 TIME LEFT:  2.00D  GRAD.:     8.038 HEAT:  8.308702
 CYCLE:   346 TIME:   0.051 TIME LEFT:  2.00D  GRAD.:     3.044 HEAT:  8.299439
 CYCLE:   347 TIME:   0.051 TIME LEFT:  2.00D  GRAD.:     1.751 HEAT:  8.296687
 CYCLE:   348 TIME:   0.059 TIME LEFT:  2.00D  GRAD.:     2.496 HEAT:  8.292143
 CYCLE:   349 TIME:   0.059 TIME LEFT:  2.00D  GRAD.:     3.684 HEAT:  8.285473
 CYCLE:   350 TIME:   0.051 TIME LEFT:  2.00D  GRAD.:     5.015 HEAT:  8.277952
 CYCLE:   351 TIME:   0.051 TIME LEFT:  2.00D  GRAD.:     3.639 HEAT:  8.273725
 CYCLE:   352 TIME:   0.051 TIME LEFT:  2.00D  GRAD.:     1.909 HEAT:  8.267606
 CYCLE:   353 TIME:   0.059 TIME LEFT:  2.00D  GRAD.:     3.709 HEAT:  8.267732
 CYCLE:   354 TIME:   0.051 TIME LEFT:  2.00D  GRAD.:     1.959 HEAT:  8.260111
 CYCLE:   355 TIME:   0.059 TIME LEFT:  2.00D  GRAD.:     2.537 HEAT:  8.257476
 CYCLE:   356 TIME:   0.051 TIME LEFT:  2.00D  GRAD.:     2.223 HEAT:  8.252367
 CYCLE:   357 TIME:   0.055 TIME LEFT:  2.00D  GRAD.:     1.642 HEAT:  8.246742
 CYCLE:   358 TIME:   0.055 TIME LEFT:  2.00D  GRAD.:     4.160 HEAT:  8.242762
 CYCLE:   359 TIME:   0.055 TIME LEFT:  2.00D  GRAD.:     2.487 HEAT:  8.236502
 CYCLE:   360 TIME:   0.055 TIME LEFT:  2.00D  GRAD.:     2.471 HEAT:  8.231166
 CYCLE:   361 TIME:   0.051 TIME LEFT:  2.00D  GRAD.:     2.541 HEAT:  8.226211
 CYCLE:   362 TIME:   0.051 TIME LEFT:  2.00D  GRAD.:     2.391 HEAT:  8.219300
 CYCLE:   363 TIME:   0.055 TIME LEFT:  2.00D  GRAD.:     3.572 HEAT:  8.214700
 CYCLE:   364 TIME:   0.051 TIME LEFT:  2.00D  GRAD.:     2.213 HEAT:  8.210717
 CYCLE:   365 TIME:   0.055 TIME LEFT:  2.00D  GRAD.:     1.951 HEAT:  8.208733
 CYCLE:   366 TIME:   0.055 TIME LEFT:  2.00D  GRAD.:     2.846 HEAT:  8.205568
 CYCLE:   367 TIME:   0.051 TIME LEFT:  2.00D  GRAD.:     1.835 HEAT:  8.202815
 CYCLE:   368 TIME:   0.059 TIME LEFT:  2.00D  GRAD.:     1.362 HEAT:  8.201275
 CYCLE:   369 TIME:   0.055 TIME LEFT:  2.00D  GRAD.:     1.350 HEAT:  8.199545
 CYCLE:   370 TIME:   0.059 TIME LEFT:  2.00D  GRAD.:     2.578 HEAT:  8.197571
 CYCLE:   371 TIME:   0.055 TIME LEFT:  2.00D  GRAD.:     1.758 HEAT:  8.195098
 CYCLE:   372 TIME:   0.051 TIME LEFT:  2.00D  GRAD.:     1.528 HEAT:  8.193624
 CYCLE:   373 TIME:   0.051 TIME LEFT:  2.00D  GRAD.:     1.213 HEAT:  8.192298
 CYCLE:   374 TIME:   0.059 TIME LEFT:  2.00D  GRAD.:     2.887 HEAT:  8.190370
 CYCLE:   375 TIME:   0.051 TIME LEFT:  2.00D  GRAD.:     1.676 HEAT:  8.188274
 CYCLE:   376 TIME:   0.055 TIME LEFT:  2.00D  GRAD.:     1.312 HEAT:  8.185782
 CYCLE:   377 TIME:   0.059 TIME LEFT:  2.00D  GRAD.:     2.201 HEAT:  8.182330
 CYCLE:   378 TIME:   0.051 TIME LEFT:  2.00D  GRAD.:     4.151 HEAT:  8.179008
 CYCLE:   379 TIME:   0.051 TIME LEFT:  2.00D  GRAD.:     2.619 HEAT:  8.174552
 CYCLE:   380 TIME:   0.055 TIME LEFT:  2.00D  GRAD.:     2.409 HEAT:  8.171477
 CYCLE:   381 TIME:   0.051 TIME LEFT:  2.00D  GRAD.:     2.050 HEAT:  8.168009
 CYCLE:   382 TIME:   0.055 TIME LEFT:  2.00D  GRAD.:     2.137 HEAT:  8.164203
 CYCLE:   383 TIME:   0.055 TIME LEFT:  2.00D  GRAD.:     2.714 HEAT:  8.161433
 CYCLE:   384 TIME:   0.051 TIME LEFT:  2.00D  GRAD.:     1.601 HEAT:  8.159009
 CYCLE:   385 TIME:   0.051 TIME LEFT:  2.00D  GRAD.:     1.517 HEAT:  8.157325
 CYCLE:   386 TIME:   0.051 TIME LEFT:  2.00D  GRAD.:     1.564 HEAT:  8.155915
 CYCLE:   387 TIME:   0.055 TIME LEFT:  2.00D  GRAD.:     2.830 HEAT:  8.154078
 CYCLE:   388 TIME:   0.055 TIME LEFT:  2.00D  GRAD.:     1.650 HEAT:  8.152024
 CYCLE:   389 TIME:   0.051 TIME LEFT:  2.00D  GRAD.:     1.611 HEAT:  8.150261
 CYCLE:   390 TIME:   0.059 TIME LEFT:  2.00D  GRAD.:     1.924 HEAT:  8.148404
 CYCLE:   391 TIME:   0.059 TIME LEFT:  2.00D  GRAD.:     3.492 HEAT:  8.145907
 CYCLE:   392 TIME:   0.051 TIME LEFT:  2.00D  GRAD.:     1.969 HEAT:  8.142612
 CYCLE:   393 TIME:   0.059 TIME LEFT:  2.00D  GRAD.:     1.589 HEAT:  8.140209
 CYCLE:   394 TIME:   0.051 TIME LEFT:  2.00D  GRAD.:     2.075 HEAT:  8.137698
 CYCLE:   395 TIME:   0.051 TIME LEFT:  2.00D  GRAD.:     2.949 HEAT:  8.135610
 CYCLE:   396 TIME:   0.051 TIME LEFT:  2.00D  GRAD.:     1.408 HEAT:  8.133337
 CYCLE:   397 TIME:   0.051 TIME LEFT:  2.00D  GRAD.:     1.345 HEAT:  8.131470
 CYCLE:   398 TIME:   0.055 TIME LEFT:  2.00D  GRAD.:     1.922 HEAT:  8.129219
 CYCLE:   399 TIME:   0.059 TIME LEFT:  2.00D  GRAD.:     2.878 HEAT:  8.126639
 CYCLE:   400 TIME:   0.051 TIME LEFT:  2.00D  GRAD.:     1.677 HEAT:  8.123471
 CYCLE:   401 TIME:   0.055 TIME LEFT:  2.00D  GRAD.:     1.743 HEAT:  8.121095
 CYCLE:   402 TIME:   0.055 TIME LEFT:  2.00D  GRAD.:     2.898 HEAT:  8.118944
 CYCLE:   403 TIME:   0.051 TIME LEFT:  2.00D  GRAD.:     1.664 HEAT:  8.116328
 CYCLE:   404 TIME:   0.051 TIME LEFT:  2.00D  GRAD.:     1.288 HEAT:  8.114359
 CYCLE:   405 TIME:   0.051 TIME LEFT:  2.00D  GRAD.:     1.748 HEAT:  8.112495
 CYCLE:   406 TIME:   0.055 TIME LEFT:  2.00D  GRAD.:     2.417 HEAT:  8.109611
 CYCLE:   407 TIME:   0.055 TIME LEFT:  2.00D  GRAD.:     2.565 HEAT:  8.107173
 CYCLE:   408 TIME:   0.055 TIME LEFT:  2.00D  GRAD.:     1.802 HEAT:  8.104075
 CYCLE:   409 TIME:   0.055 TIME LEFT:  2.00D  GRAD.:     2.456 HEAT:  8.100712
 CYCLE:   410 TIME:   0.051 TIME LEFT:  2.00D  GRAD.:     2.416 HEAT:  8.096209
 CYCLE:   411 TIME:   0.055 TIME LEFT:  2.00D  GRAD.:     6.746 HEAT:  8.098145
 CYCLE:   412 TIME:   0.051 TIME LEFT:  2.00D  GRAD.:     1.452 HEAT:  8.089611
 CYCLE:   413 TIME:   0.059 TIME LEFT:  2.00D  GRAD.:     1.508 HEAT:  8.088793
 CYCLE:   414 TIME:   0.074 TIME LEFT:  2.00D  GRAD.:     1.633 HEAT:  8.085237
 CYCLE:   415 TIME:   0.062 TIME LEFT:  2.00D  GRAD.:     3.551 HEAT:  8.084152
 CYCLE:   416 TIME:   0.051 TIME LEFT:  2.00D  GRAD.:     1.511 HEAT:  8.081814
 CYCLE:   417 TIME:   0.051 TIME LEFT:  2.00D  GRAD.:     1.252 HEAT:  8.080674
 CYCLE:   418 TIME:   0.055 TIME LEFT:  2.00D  GRAD.:     1.869 HEAT:  8.078671
 CYCLE:   419 TIME:   0.051 TIME LEFT:  2.00D  GRAD.:     1.756 HEAT:  8.075557
 CYCLE:   420 TIME:   0.059 TIME LEFT:  2.00D  GRAD.:     3.111 HEAT:  8.073337
 CYCLE:   421 TIME:   0.055 TIME LEFT:  2.00D  GRAD.:     6.144 HEAT:  8.073163
 CYCLE:   422 TIME:   0.051 TIME LEFT:  2.00D  GRAD.:     1.722 HEAT:  8.067726
 CYCLE:   423 TIME:   0.051 TIME LEFT:  2.00D  GRAD.:     1.226 HEAT:  8.065812
 CYCLE:   424 TIME:   0.059 TIME LEFT:  2.00D  GRAD.:     2.322 HEAT:  8.062505
 CYCLE:   425 TIME:   0.051 TIME LEFT:  2.00D  GRAD.:     2.119 HEAT:  8.057966
 CYCLE:   426 TIME:   0.059 TIME LEFT:  2.00D  GRAD.:     2.924 HEAT:  8.051784
 CYCLE:   427 TIME:   0.055 TIME LEFT:  2.00D  GRAD.:     2.216 HEAT:  8.047861
 CYCLE:   428 TIME:   0.055 TIME LEFT:  2.00D  GRAD.:     3.222 HEAT:  8.044416
 CYCLE:   429 TIME:   0.055 TIME LEFT:  2.00D  GRAD.:     4.013 HEAT:  8.038713
 CYCLE:   430 TIME:   0.051 TIME LEFT:  2.00D  GRAD.:     2.940 HEAT:  8.033240
 CYCLE:   431 TIME:   0.055 TIME LEFT:  2.00D  GRAD.:     2.128 HEAT:  8.030425
 CYCLE:   432 TIME:   0.055 TIME LEFT:  2.00D  GRAD.:     2.756 HEAT:  8.026697
 CYCLE:   433 TIME:   0.055 TIME LEFT:  2.00D  GRAD.:     2.855 HEAT:  8.023898
 CYCLE:   434 TIME:   0.051 TIME LEFT:  2.00D  GRAD.:     2.908 HEAT:  8.020105
 CYCLE:   435 TIME:   0.055 TIME LEFT:  2.00D  GRAD.:     2.361 HEAT:  8.015586
 CYCLE:   436 TIME:   0.062 TIME LEFT:  2.00D  GRAD.:     3.110 HEAT:  8.013594
 CYCLE:   437 TIME:   0.055 TIME LEFT:  2.00D  GRAD.:     3.771 HEAT:  8.010707
 CYCLE:   438 TIME:   0.051 TIME LEFT:  2.00D  GRAD.:     1.866 HEAT:  8.007542
 CYCLE:   439 TIME:   0.051 TIME LEFT:  2.00D  GRAD.:     1.558 HEAT:  8.005777
 CYCLE:   440 TIME:   0.062 TIME LEFT:  2.00D  GRAD.:     3.001 HEAT:  8.003562
 CYCLE:   441 TIME:   0.055 TIME LEFT:  2.00D  GRAD.:     6.325 HEAT:  8.008726
 CYCLE:   442 TIME:   0.051 TIME LEFT:  2.00D  GRAD.:     2.053 HEAT:  8.000072
 CYCLE:   443 TIME:   0.059 TIME LEFT:  2.00D  GRAD.:     2.484 HEAT:  7.998452
 CYCLE:   444 TIME:   0.055 TIME LEFT:  2.00D  GRAD.:     1.481 HEAT:  7.995162
 CYCLE:   445 TIME:   0.051 TIME LEFT:  2.00D  GRAD.:     1.661 HEAT:  7.994038
 CYCLE:   446 TIME:   0.055 TIME LEFT:  2.00D  GRAD.:     0.951 HEAT:  7.992639

 -------------------------------------------------------------------------------
 PM7 XYZ

 Lipophilicity_1315 - geometry optimisation


     HERBERTS TEST WAS SATISFIED IN BFGS                      
     SCF FIELD WAS ACHIEVED                                   


                              PM7 CALCULATION
                                                       MOPAC v23.0.3 Linux
                                                       Fri Jul 25 16:50:18 2025




          FINAL HEAT OF FORMATION =          7.99264 KCAL/MOL =      33.44120 KJ/MOL


          COSMO AREA              =        441.73 SQUARE ANGSTROMS
          COSMO VOLUME            =        531.23 CUBIC ANGSTROMS

          GRADIENT NORM           =          0.95078          =       0.11979 PER ATOM
          IONIZATION POTENTIAL    =          8.133980 EV
          HOMO LUMO ENERGIES (EV) =         -8.134 -0.553
          NO. OF FILLED LEVELS    =         87
          MOLECULAR WEIGHT        =        451.5457         POINT GROUP:  C1  

          MOLECULAR DIMENSIONS (Angstroms)

            Atom       Atom       Distance
            H    52    H    38    16.56736
            H    48    H    63     7.82566
            H    59    H    56     6.16156


          SCF CALCULATIONS        =        447

          WALL-CLOCK TIME         =     24.398 SECONDS
          COMPUTATION TIME        =          8 MINUTES AND 6.412 SECONDS




   ATOM   CHEMICAL          X               Y               Z
  NUMBER   SYMBOL      (ANGSTROMS)     (ANGSTROMS)     (ANGSTROMS)

     1       C          6.03083626  *   1.32274843  *   1.22173074  *
     2       N          6.95118939  *   0.46063200  *   0.45088298  *
     3       C          7.09754635  *   0.92200457  *  -0.93889982  *
     4       C          5.81133638  *   0.79486282  *  -1.79450066  *
     5       N          5.03056530  *  -0.43433436  *  -1.51266770  *
     6       C          5.81045991  *  -1.45236325  *  -0.79413958  *
     7       C          6.55354125  *  -0.96347812  *   0.48010651  *
     8       C          3.71420183  *  -0.17887953  *  -1.01905768  *
     9       C          3.29910124  *  -0.52001980  *   0.27254355  *
    10       C          1.98702368  *  -0.32487943  *   0.69052820  *
    11       C          1.05796508  *   0.21238606  *  -0.19941640  *
    12       N         -0.29599431  *   0.47272227  *   0.12972566  *
    13       C         -1.03499483  *  -0.15858648  *   1.10454663  *
    14       N         -0.45642381  *  -0.87425017  *   2.11415313  *
    15       C         -1.27806436  *  -1.43000592  *   3.02656286  *
    16       C         -2.65784508  *  -1.27599415  *   2.95865583  *
    17       F         -3.44194633  *  -1.82702662  *   3.86909510  *
    18       C         -3.21930205  *  -0.51113746  *   1.89142821  *
    19       N         -4.56023923  *  -0.27536517  *   1.77342040  *
    20       C         -5.08926673  *   0.57256562  *   0.70892245  *
    21       C         -6.49993325  *   1.12509545  *   1.14424213  *
    22       C         -7.43916975  *  -0.01612788  *   0.64401780  *
    23       C         -6.93987030  *   0.08721839  *  -0.83434708  *
    24       C         -7.07390115  *   1.59030211  *  -1.05688016  *
    25       C         -6.81328581  *   2.20321780  *   0.11248494  *
    26       C         -5.40674138  *  -0.16420551  *  -0.65223438  *
    27       C         -5.12261505  *  -1.64866040  *  -0.65253429  *
    28       O         -5.98138043  *  -2.49822643  *  -0.52720784  *
    29       N         -3.81280310  *  -2.02288267  *  -0.89003006  *
    30       N         -2.39238388  *   0.01392567  *   0.94598978  *
    31       C          1.45646468  *   0.55766421  *  -1.50361055  *
    32       C          2.76682552  *   0.35929840  *  -1.92181592  *
    33       C          3.13011663  *   0.69822626  *  -3.32788827  *
    34       H          6.40267538  *   2.36011996  *   1.19297946  *
    35       H          4.98837887  *   1.32111843  *   0.86829818  *
    36       H          6.04455209  *   1.00253361  *   2.27675293  *
    37       H          7.44197667  *   1.97785054  *  -0.93053535  *
    38       H          7.92164179  *   0.33109986  *  -1.39920271  *
    39       H          6.08662707  *   0.75162825  *  -2.87292767  *
    40       H          5.18255814  *   1.69928015  *  -1.65821358  *
    41       H          5.14929585  *  -2.31151062  *  -0.55004548  *
    42       H          6.55638904  *  -1.84023301  *  -1.52804295  *
    43       H          7.50061567  *  -1.54230159  *   0.59145297  *
    44       H          5.95871403  *  -1.18104432  *   1.38932790  *
    45       H          4.00527856  *  -0.94648905  *   0.98375074  *
    46       H          1.70344475  *  -0.59466368  *   1.71294055  *
    47       H         -0.83493589  *   1.00904515  *  -0.55540512  *
    48       H         -0.78442041  *  -2.00690569  *   3.82271293  *
    49       H         -5.22106578  *  -0.85062793  *   2.28295530  *
    50       H         -4.37253955  *   1.41183957  *   0.52086319  *
    51       H         -6.57660028  *   1.41315365  *   2.19213429  *
    52       H         -8.50396588  *   0.20943078  *   0.75997923  *
    53       H         -7.26020607  *  -0.99909415  *   1.09398840  *
    54       H         -7.42599468  *  -0.57099818  *  -1.55709921  *
    55       H         -7.32326414  *   2.00433987  *  -2.00873585  *
    56       H         -6.79374957  *   3.24234578  *   0.35594316  *
    57       H         -4.83782061  *   0.32344864  *  -1.47381909  *
    58       H         -3.06024634  *  -1.36787896  *  -0.79694148  *
    59       H         -3.56845530  *  -2.99479985  *  -0.87614994  *
    60       H          0.73302812  *   0.97233477  *  -2.20308746  *
    61       H          3.57977759  *   1.69823873  *  -3.39843340  *
    62       H          3.86316144  *  -0.01945679  *  -3.73515323  *
    63       H          2.26364947  *   0.68068510  *  -4.00177643  *

                             CARTESIAN COORDINATES

   1    C        6.030836256     1.322748430     1.221730744
   2    N        6.951189394     0.460632001     0.450882981
   3    C        7.097546346     0.922004567    -0.938899819
   4    C        5.811336375     0.794862823    -1.794500663
   5    N        5.030565303    -0.434334356    -1.512667703
   6    C        5.810459909    -1.452363254    -0.794139580
   7    C        6.553541251    -0.963478124     0.480106508
   8    C        3.714201830    -0.178879533    -1.019057678
   9    C        3.299101241    -0.520019796     0.272543549
  10    C        1.987023680    -0.324879430     0.690528199
  11    C        1.057965082     0.212386058    -0.199416404
  12    N       -0.295994306     0.472722270     0.129725656
  13    C       -1.034994833    -0.158586477     1.104546631
  14    N       -0.456423806    -0.874250174     2.114153131
  15    C       -1.278064364    -1.430005924     3.026562864
  16    C       -2.657845078    -1.275994150     2.958655833
  17    F       -3.441946327    -1.827026618     3.869095103
  18    C       -3.219302053    -0.511137461     1.891428215
  19    N       -4.560239229    -0.275365172     1.773420404
  20    C       -5.089266733     0.572565617     0.708922447
  21    C       -6.499933245     1.125095455     1.144242129
  22    C       -7.439169746    -0.016127880     0.644017799
  23    C       -6.939870300     0.087218393    -0.834347084
  24    C       -7.073901152     1.590302108    -1.056880156
  25    C       -6.813285815     2.203217804     0.112484944
  26    C       -5.406741384    -0.164205510    -0.652234379
  27    C       -5.122615049    -1.648660399    -0.652534294
  28    O       -5.981380430    -2.498226432    -0.527207840
  29    N       -3.812803104    -2.022882667    -0.890030058
  30    N       -2.392383876     0.013925665     0.945989783
  31    C        1.456464677     0.557664209    -1.503610549
  32    C        2.766825524     0.359298402    -1.921815924
  33    C        3.130116628     0.698226262    -3.327888271
  34    H        6.402675376     2.360119963     1.192979464
  35    H        4.988378868     1.321118434     0.868298180
  36    H        6.044552088     1.002533612     2.276752934
  37    H        7.441976666     1.977850536    -0.930535354
  38    H        7.921641793     0.331099864    -1.399202705
  39    H        6.086627067     0.751628245    -2.872927673
  40    H        5.182558139     1.699280155    -1.658213576
  41    H        5.149295854    -2.311510623    -0.550045479
  42    H        6.556389043    -1.840233015    -1.528042952
  43    H        7.500615668    -1.542301590     0.591452974
  44    H        5.958714026    -1.181044324     1.389327903
  45    H        4.005278560    -0.946489048     0.983750742
  46    H        1.703444750    -0.594663678     1.712940552
  47    H       -0.834935894     1.009045154    -0.555405120
  48    H       -0.784420405    -2.006905694     3.822712927
  49    H       -5.221065782    -0.850627926     2.282955305
  50    H       -4.372539549     1.411839572     0.520863194
  51    H       -6.576600279     1.413153651     2.192134293
  52    H       -8.503965880     0.209430784     0.759979225
  53    H       -7.260206071    -0.999094146     1.093988398
  54    H       -7.425994675    -0.570998178    -1.557099208
  55    H       -7.323264137     2.004339871    -2.008735850
  56    H       -6.793749570     3.242345776     0.355943164
  57    H       -4.837820605     0.323448643    -1.473819089
  58    H       -3.060246338    -1.367878958    -0.796941475
  59    H       -3.568455302    -2.994799851    -0.876149939
  60    H        0.733028121     0.972334769    -2.203087459
  61    H        3.579777590     1.698238731    -3.398433396
  62    H        3.863161439    -0.019456792    -3.735153230
  63    H        2.263649471     0.680685103    -4.001776431


           Empirical Formula: C24 H30 N7 O F  =    63 atoms



      MOLECULAR POINT GROUP   :   C1  


                  EIGENVALUES  
 -41.37534 -38.52142 -37.56916 -36.69171 -36.32915 -36.21845 -34.36275 -34.04351
 -32.27978 -30.33966 -29.95032 -27.56703 -27.15181 -26.42226 -26.24865 -25.94597
 -25.24069 -24.98948 -24.46170 -23.90420 -23.47533 -23.13936 -22.85808 -22.39447
 -21.92101 -21.08265 -20.50096 -20.07503 -19.38566 -19.18611 -18.94105 -18.54184
 -18.11790 -18.06855 -17.90440 -17.70724 -17.49127 -17.25567 -17.02764 -16.92028
 -16.79375 -16.56678 -16.19323 -15.96948 -15.80050 -15.69904 -15.57364 -15.24937
 -15.21223 -15.09992 -14.81176 -14.70575 -14.49266 -14.43003 -14.04556 -13.94509
 -13.88364 -13.84738 -13.76596 -13.69305 -13.54926 -13.27608 -13.13730 -13.05758
 -12.94325 -12.74351 -12.57473 -12.44666 -12.39715 -12.36328 -12.20557 -12.09644
 -12.07414 -11.95704 -11.92010 -11.79956 -11.63881 -10.65612 -10.50820 -10.34863
 -10.21402 -10.12142  -9.80130  -9.69835  -9.23513  -8.79681  -8.13398  -0.55342
  -0.30471   0.12611   0.37399   0.56270   1.21798   1.24579   1.48150   1.94776
   2.24700   2.48458   2.51568   2.66480   2.78703   2.80066   2.86312   2.91222
   3.02337   3.30642   3.35392   3.36242   3.59824   3.64168   3.76834   3.94275
   4.03294   4.12387   4.16792   4.27112   4.28560   4.33759   4.57870   4.60583
   4.66110   4.70157   4.76605   4.80833   4.94385   5.00797   5.03850   5.09672
   5.13474   5.19898   5.21386   5.29234   5.45824   5.46810   5.58379   5.58668
   5.62214   5.62871   5.69746   5.70162   5.72444   5.73747   5.76817   5.79256
   5.86877   5.90586   5.98023   6.01364   6.04979   6.07167   6.08723   6.11121
   6.14788   6.16138   6.20035   6.20989   6.40115   6.44295   6.57182   6.60074
   6.84626   7.02809


              NET ATOMIC CHARGES AND DIPOLE CONTRIBUTIONS

  ATOM NO.   TYPE          CHARGE      No. of ELECS.   s-Pop       p-Pop       
    1          C          -0.288042        4.2880     1.06347     3.22458
    2          N          -0.387414        5.3874     1.68199     3.70543
    3          C          -0.144200        4.1442     1.07385     3.07035
    4          C          -0.136560        4.1366     1.07668     3.05988
    5          N          -0.417866        5.4179     1.64303     3.77484
    6          C          -0.133310        4.1333     1.07404     3.05927
    7          C          -0.158412        4.1584     1.07688     3.08153
    8          C           0.108436        3.8916     1.06340     2.82817
    9          C          -0.203334        4.2033     1.08384     3.11949
   10          C          -0.173228        4.1732     1.08418     3.08905
   11          C           0.179611        3.8204     1.04892     2.77147
   12          N          -0.452492        5.4525     1.52632     3.92617
   13          C           0.553572        3.4464     1.04517     2.40126
   14          N          -0.525895        5.5259     1.75712     3.76878
   15          C           0.149479        3.8505     1.09814     2.75238
   16          C          -0.179528        4.1795     1.07257     3.10696
   17          F          -0.124862        7.1249     1.96606     5.15881
   18          C           0.441557        3.5584     1.04769     2.51075
   19          N          -0.501816        5.5018     1.53968     3.96214
   20          C           0.094650        3.9054     1.08899     2.81636
   21          C          -0.136204        4.1362     1.08407     3.05213
   22          C          -0.276691        4.2767     1.08107     3.19562
   23          C          -0.080237        4.0802     1.07830     3.00194
   24          C          -0.170945        4.1709     1.10547     3.06548
   25          C          -0.172094        4.1721     1.10163     3.07047
   26          C          -0.255571        4.2556     1.09474     3.16083
   27          C           0.586703        3.4133     1.08125     2.33205
   28          O          -0.534908        6.5349     1.88046     4.65445
   29          N          -0.687955        5.6880     1.55228     4.13567
   30          N          -0.656029        5.6560     1.76575     3.89028
   31          C          -0.246722        4.2467     1.07880     3.16792
   32          C           0.033180        3.9668     1.06626     2.90056
   33          C          -0.446058        4.4461     1.04862     3.39744
   34          H           0.144968        0.8550     0.85503
   35          H           0.134275        0.8657     0.86573
   36          H           0.147570        0.8524     0.85243
   37          H           0.143985        0.8560     0.85601
   38          H           0.148382        0.8516     0.85162
   39          H           0.144198        0.8558     0.85580
   40          H           0.139323        0.8607     0.86068
   41          H           0.149827        0.8502     0.85017
   42          H           0.149023        0.8510     0.85098
   43          H           0.148146        0.8519     0.85185
   44          H           0.137956        0.8620     0.86204
   45          H           0.161990        0.8380     0.83801
   46          H           0.207772        0.7922     0.79223
   47          H           0.328208        0.6718     0.67179
   48          H           0.192685        0.8073     0.80732
   49          H           0.333933        0.6661     0.66607
   50          H           0.171380        0.8286     0.82862
   51          H           0.152035        0.8480     0.84796
   52          H           0.147701        0.8523     0.85230
   53          H           0.156843        0.8432     0.84316
   54          H           0.158960        0.8410     0.84104
   55          H           0.149763        0.8502     0.85024
   56          H           0.150338        0.8497     0.84966
   57          H           0.170740        0.8293     0.82926
   58          H           0.317418        0.6826     0.68258
   59          H           0.311077        0.6889     0.68892
   60          H           0.160297        0.8397     0.83970
   61          H           0.154394        0.8456     0.84561
   62          H           0.175804        0.8242     0.82420
   63          H           0.154194        0.8458     0.84581
 DIPOLE           X         Y         Z       TOTAL
 POINT-CHG.     2.429     3.748    -2.153     4.958
 HYBRID        -1.386    -0.584     0.621     1.627
 SUM            1.042     3.165    -1.532     3.667


          ATOMIC ORBITAL ELECTRON POPULATIONS

     Atom    s        px        py        pz   
    1  C   1.06347   1.06138   1.07620   1.08700
    2  N   1.68199   1.48080   1.06768   1.15694
    3  C   1.07385   1.03611   1.13245   0.90179
    4  C   1.07668   1.01156   0.95214   1.09618
    5  N   1.64303   1.08108   1.16789   1.52587
    6  C   1.07404   1.05961   0.97933   1.02033
    7  C   1.07688   1.11292   0.91425   1.05437
    8  C   1.06340   0.87975   0.99698   0.95143
    9  C   1.08384   1.04243   1.05635   1.02072
   10  C   1.08418   0.97049   1.02427   1.09429
   11  C   1.04892   0.80329   1.00292   0.96526
   12  N   1.52632   1.14282   1.46521   1.31815
   13  C   1.04517   0.77784   0.80120   0.82222
   14  N   1.75712   1.38122   1.25333   1.13423
   15  C   1.09814   0.91919   0.89084   0.94235
   16  C   1.07257   0.94537   1.16638   0.99520
   17  F   1.96606   1.70807   1.84264   1.60810
   18  C   1.04769   0.81488   0.83745   0.85843
   19  N   1.53968   1.10582   1.45369   1.40263
   20  C   1.08899   1.00377   0.96102   0.85156
   21  C   1.08407   0.97529   1.00321   1.07362
   22  C   1.08107   1.10153   1.08351   1.01058
   23  C   1.07830   0.96516   1.00236   1.03442
   24  C   1.10547   1.00244   1.01156   1.05148
   25  C   1.10163   1.01534   1.05604   0.99909
   26  C   1.09474   1.05916   1.02507   1.07660
   27  C   1.08125   0.76223   0.86478   0.70504
   28  O   1.88046   1.54551   1.57124   1.53769
   29  N   1.55228   1.17491   1.22288   1.73789
   30  N   1.76575   1.11154   1.42698   1.35176
   31  C   1.07880   1.04573   1.10007   1.02212
   32  C   1.06626   0.95593   0.98077   0.96386
   33  C   1.04862   1.18290   1.17234   1.04221
   34  H   0.85503
   35  H   0.86573
   36  H   0.85243
   37  H   0.85601
   38  H   0.85162
   39  H   0.85580
   40  H   0.86068
   41  H   0.85017
   42  H   0.85098
   43  H   0.85185
   44  H   0.86204
   45  H   0.83801
   46  H   0.79223
   47  H   0.67179
   48  H   0.80732
   49  H   0.66607
   50  H   0.82862
   51  H   0.84796
   52  H   0.85230
   53  H   0.84316
   54  H   0.84104
   55  H   0.85024
   56  H   0.84966
   57  H   0.82926
   58  H   0.68258
   59  H   0.68892
   60  H   0.83970
   61  H   0.84561
   62  H   0.82420
   63  H   0.84581

 **********************
 *                    *
 * JOB ENDED NORMALLY *
 *                    *
 **********************



 TOTAL JOB TIME:            24.40 SECONDS

 == MOPAC DONE ==
