 *******************************************************************************
 **                                                                           **
 **                              MOPAC v23.0.3                                **
 **                                                                           **
 *******************************************************************************
 **          Digital Object Identifier (DOI): 10.5281/zenodo.6511958          **
 **    Visit the DOI location for information on how to cite this program.    **
 *******************************************************************************

                              PM7 CALCULATION RESULTS

 *******************************************************************************
 *  CALCULATION DONE:                                Fri Jul 25 19:03:56 2025  *
 *  PM7        - The PM7 Hamiltonian to be used
 *  XYZ        - CARTESIAN COORDINATE SYSTEM TO BE USED
 *  T=         - A TIME OF 172800.0 SECONDS REQUESTED
 *  DUMP=N     - RESTART FILE WRITTEN EVERY 7200.0 SECONDS REQUESTED
 *******************************************************************************
PM7 XYZ

 Lipophilicity_2052 - geometry optimisation
   ATOM   CHEMICAL          X               Y               Z
  NUMBER   SYMBOL      (ANGSTROMS)     (ANGSTROMS)     (ANGSTROMS)

     1       C         -4.13680900  *   3.63626000  *  -0.96360300  *
     2       C         -3.77722200  *   2.38568300  *  -0.15458000  *
     3       C         -2.29909500  *   2.30828100  *   0.32159800  *
     4       C         -1.32829900  *   2.27311700  *  -0.88079500  *
     5       C         -1.93710800  *   3.51488700  *   1.21797200  *
     6       C         -2.14358800  *   1.01839600  *   1.10503700  *
     7       O         -2.22012300  *   1.01820800  *   2.36645600  *
     8       O         -1.96396300  *  -0.18495600  *   0.41350800  *
     9       C         -1.73023200  *  -1.44210000  *   1.05224100  *
    10       C         -3.06843100  *  -1.97510500  *   1.64285800  *
    11       C         -3.29838200  *  -3.47003500  *   1.36484100  *
    12       C         -4.68619100  *  -3.91266100  *   1.83815800  *
    13       C         -3.11692000  *  -3.72924900  *  -0.10602600  *
    14       C         -2.05013200  *  -3.22544300  *  -0.73785300  *
    15       C         -1.83006600  *  -3.53321300  *  -2.16594400  *
    16       C         -0.67107400  *  -3.25190500  *  -2.76409700  *
    17       C          0.50012200  *  -2.68457300  *  -2.00342600  *
    18       C          1.37883900  *  -3.83499000  *  -1.48520400  *
    19       C         -0.00145000  *  -1.71612600  *  -0.88853100  *
    20       C          1.14550700  *  -1.05100900  *  -0.08071100  *
    21       C          2.14572800  *  -0.28428400  *  -0.96464800  *
    22       C          3.05464500  *   0.64128100  *  -0.12881000  *
    23       O          3.69933700  *  -0.08467300  *   0.89092000  *
    24       C          4.09094500  *   1.35945300  *  -1.02832600  *
    25       C          4.68531000  *   2.64570800  *  -0.41040700  *
    26       O          3.67303600  *   3.59402500  *  -0.18609400  *
    27       C          5.44027500  *   2.37635600  *   0.90143100  *
    28       C          6.23398800  *   3.57563600  *   1.31817000  *
    29       O          5.70666600  *   4.46181200  *   2.04291900  *
    30       O          7.53771700  *   3.73622300  *   0.86132700  *
    31       C         -1.02789400  *  -2.42549500  *   0.05541600  *
    32       H         -5.20527100  *   3.58021900  *  -1.26121600  *
    33       H         -3.52930700  *   3.70259800  *  -1.88965100  *
    34       H         -4.00289400  *   4.55547800  *  -0.35908600  *
    35       H         -4.45271100  *   2.34292200  *   0.72865300  *
    36       H         -4.00963600  *   1.49617600  *  -0.78011800  *
    37       H         -1.62898300  *   1.49038700  *  -1.60979000  *
    38       H         -0.29361900  *   2.04904300  *  -0.54027700  *
    39       H         -1.30137500  *   3.25107200  *  -1.40747600  *
    40       H         -1.90382200  *   4.45739400  *   0.63280000  *
    41       H         -2.68043000  *   3.63613700  *   2.03516400  *
    42       H         -0.93366900  *   3.37163500  *   1.67268900  *
    43       H         -1.02260700  *  -1.28662600  *   1.89800300  *
    44       H         -3.91686200  *  -1.39813600  *   1.20944600  *
    45       H         -3.08352800  *  -1.79856500  *   2.74107000  *
    46       H         -2.53739900  *  -4.05880700  *   1.92397300  *
    47       H         -5.48176100  *  -3.35381700  *   1.30057400  *
    48       H         -4.82195400  *  -4.99953500  *   1.65478900  *
    49       H         -4.79300600  *  -3.72949700  *   2.92875800  *
    50       H         -3.85278200  *  -4.31025900  *  -0.65074300  *
    51       H         -2.62012900  *  -3.99549400  *  -2.74563800  *
    52       H         -0.54915800  *  -3.48806500  *  -3.81436400  *
    53       H          1.10289900  *  -2.10622200  *  -2.73628500  *
    54       H          2.29608400  *  -3.44572500  *  -0.99968600  *
    55       H          1.70154500  *  -4.47252300  *  -2.33541300  *
    56       H          0.82688300  *  -4.47211600  *  -0.76396700  *
    57       H         -0.53799200  *  -0.89909700  *  -1.42112900  *
    58       H          0.70390300  *  -0.32390500  *   0.63253700  *
    59       H          1.68177400  *  -1.81242800  *   0.52472800  *
    60       H          2.77778000  *  -1.00430900  *  -1.52860300  *
    61       H          1.58399000  *   0.33765900  *  -1.69744400  *
    62       H          2.40288900  *   1.40530500  *   0.35011300  *
    63       H          4.23922700  *  -0.79809700  *   0.45969700  *
    64       H          3.61120400  *   1.64278900  *  -1.99099200  *
    65       H          4.91568500  *   0.65980200  *  -1.28485400  *
    66       H          5.41769200  *   3.05390700  *  -1.14696900  *
    67       H          3.41328700  *   3.95344500  *  -1.07364600  *
    68       H          6.13650300  *   1.51959600  *   0.76850700  *
    69       H          4.72522300  *   2.12015100  *   1.71276800  *
    70       H          8.08335100  *   4.54976200  *   1.11963000  *
    71       H         -0.46615700  *  -3.16176100  *   0.67215600  *



          CARTESIAN COORDINATES 

    NO.       ATOM           X           Y           Z

     1         C         -4.1368      3.6363     -0.9636
     2         C         -3.7772      2.3857     -0.1546
     3         C         -2.2991      2.3083      0.3216
     4         C         -1.3283      2.2731     -0.8808
     5         C         -1.9371      3.5149      1.2180
     6         C         -2.1436      1.0184      1.1050
     7         O         -2.2201      1.0182      2.3665
     8         O         -1.9640     -0.1850      0.4135
     9         C         -1.7302     -1.4421      1.0522
    10         C         -3.0684     -1.9751      1.6429
    11         C         -3.2984     -3.4700      1.3648
    12         C         -4.6862     -3.9127      1.8382
    13         C         -3.1169     -3.7292     -0.1060
    14         C         -2.0501     -3.2254     -0.7379
    15         C         -1.8301     -3.5332     -2.1659
    16         C         -0.6711     -3.2519     -2.7641
    17         C          0.5001     -2.6846     -2.0034
    18         C          1.3788     -3.8350     -1.4852
    19         C         -0.0014     -1.7161     -0.8885
    20         C          1.1455     -1.0510     -0.0807
    21         C          2.1457     -0.2843     -0.9646
    22         C          3.0546      0.6413     -0.1288
    23         O          3.6993     -0.0847      0.8909
    24         C          4.0909      1.3595     -1.0283
    25         C          4.6853      2.6457     -0.4104
    26         O          3.6730      3.5940     -0.1861
    27         C          5.4403      2.3764      0.9014
    28         C          6.2340      3.5756      1.3182
    29         O          5.7067      4.4618      2.0429
    30         O          7.5377      3.7362      0.8613
    31         C         -1.0279     -2.4255      0.0554
    32         H         -5.2053      3.5802     -1.2612
    33         H         -3.5293      3.7026     -1.8897
    34         H         -4.0029      4.5555     -0.3591
    35         H         -4.4527      2.3429      0.7287
    36         H         -4.0096      1.4962     -0.7801
    37         H         -1.6290      1.4904     -1.6098
    38         H         -0.2936      2.0490     -0.5403
    39         H         -1.3014      3.2511     -1.4075
    40         H         -1.9038      4.4574      0.6328
    41         H         -2.6804      3.6361      2.0352
    42         H         -0.9337      3.3716      1.6727
    43         H         -1.0226     -1.2866      1.8980
    44         H         -3.9169     -1.3981      1.2094
    45         H         -3.0835     -1.7986      2.7411
    46         H         -2.5374     -4.0588      1.9240
    47         H         -5.4818     -3.3538      1.3006
    48         H         -4.8220     -4.9995      1.6548
    49         H         -4.7930     -3.7295      2.9288
    50         H         -3.8528     -4.3103     -0.6507
    51         H         -2.6201     -3.9955     -2.7456
    52         H         -0.5492     -3.4881     -3.8144
    53         H          1.1029     -2.1062     -2.7363
    54         H          2.2961     -3.4457     -0.9997
    55         H          1.7015     -4.4725     -2.3354
    56         H          0.8269     -4.4721     -0.7640
    57         H         -0.5380     -0.8991     -1.4211
    58         H          0.7039     -0.3239      0.6325
    59         H          1.6818     -1.8124      0.5247
    60         H          2.7778     -1.0043     -1.5286
    61         H          1.5840      0.3377     -1.6974
    62         H          2.4029      1.4053      0.3501
    63         H          4.2392     -0.7981      0.4597
    64         H          3.6112      1.6428     -1.9910
    65         H          4.9157      0.6598     -1.2849
    66         H          5.4177      3.0539     -1.1470
    67         H          3.4133      3.9534     -1.0736
    68         H          6.1365      1.5196      0.7685
    69         H          4.7252      2.1202      1.7128
    70         H          8.0834      4.5498      1.1196
    71         H         -0.4662     -3.1618      0.6722

 General Reference for PM7:
 "Optimization of Parameters for Semiempirical Methods VI: More Modifications to the 
 NDDO Approximations and Re-optimization of Parameters", J. J. P. Stewart, J. Mol. Mod., 1:32, 19 (2013)
 https://link.springer.com/article/10.1007/s00894-012-1667-x

           Empirical Formula: C25 H40 O6  =    71 atoms



      MOLECULAR POINT GROUP   :   C1  


      RHF CALCULATION, NO. OF DOUBLY OCCUPIED LEVELS = 88


          Geometry optimization using L-BFGS
 CYCLE:     1 TIME:   0.102 TIME LEFT:  2.00D  GRAD.:   240.004 HEAT: -288.9087
 CYCLE:     2 TIME:   0.055 TIME LEFT:  2.00D  GRAD.:   233.972 HEAT: -289.4775
 CYCLE:     3 TIME:   0.070 TIME LEFT:  2.00D  GRAD.:    96.062 HEAT: -301.0603
 CYCLE:     4 TIME:   0.062 TIME LEFT:  2.00D  GRAD.:   234.067 HEAT: -289.4780
 CYCLE:     5 TIME:   0.070 TIME LEFT:  2.00D  GRAD.:    96.164 HEAT: -301.0589
 CYCLE:     6 TIME:   0.055 TIME LEFT:  2.00D  GRAD.:    60.930 HEAT: -302.6532
 CYCLE:     7 TIME:   0.062 TIME LEFT:  2.00D  GRAD.:    56.710 HEAT: -305.6725
 CYCLE:     8 TIME:   0.062 TIME LEFT:  2.00D  GRAD.:    56.536 HEAT: -307.7249
 CYCLE:     9 TIME:   0.070 TIME LEFT:  2.00D  GRAD.:    56.107 HEAT: -310.0786
 CYCLE:    10 TIME:   0.062 TIME LEFT:  2.00D  GRAD.:   151.281 HEAT: -308.4047
 CYCLE:    11 TIME:   0.062 TIME LEFT:  2.00D  GRAD.:    24.432 HEAT: -311.3631
 CYCLE:    12 TIME:   0.062 TIME LEFT:  2.00D  GRAD.:    20.395 HEAT: -311.5959
 CYCLE:    13 TIME:   0.062 TIME LEFT:  2.00D  GRAD.:    24.442 HEAT: -312.2982
 CYCLE:    14 TIME:   0.062 TIME LEFT:  2.00D  GRAD.:    37.098 HEAT: -312.7821
 CYCLE:    15 TIME:   0.062 TIME LEFT:  2.00D  GRAD.:    22.967 HEAT: -313.4429
 CYCLE:    16 TIME:   0.062 TIME LEFT:  2.00D  GRAD.:    21.296 HEAT: -313.9184
 CYCLE:    17 TIME:   0.062 TIME LEFT:  2.00D  GRAD.:    38.068 HEAT: -314.1594
 CYCLE:    18 TIME:   0.062 TIME LEFT:  2.00D  GRAD.:    17.005 HEAT: -314.4495
 CYCLE:    19 TIME:   0.055 TIME LEFT:  2.00D  GRAD.:    15.618 HEAT: -314.6256
 CYCLE:    20 TIME:   0.062 TIME LEFT:  2.00D  GRAD.:    17.781 HEAT: -314.8550
 CYCLE:    21 TIME:   0.055 TIME LEFT:  2.00D  GRAD.:    26.325 HEAT: -315.1430
 CYCLE:    22 TIME:   0.062 TIME LEFT:  2.00D  GRAD.:    21.748 HEAT: -315.3726
 CYCLE:    23 TIME:   0.062 TIME LEFT:  2.00D  GRAD.:    11.704 HEAT: -315.5487
 CYCLE:    24 TIME:   0.062 TIME LEFT:  2.00D  GRAD.:    12.432 HEAT: -315.6925
 CYCLE:    25 TIME:   0.055 TIME LEFT:  2.00D  GRAD.:    13.553 HEAT: -315.8654
 CYCLE:    26 TIME:   0.070 TIME LEFT:  2.00D  GRAD.:    34.196 HEAT: -315.9574
 CYCLE:    27 TIME:   0.055 TIME LEFT:  2.00D  GRAD.:    10.380 HEAT: -316.2064
 CYCLE:    28 TIME:   0.062 TIME LEFT:  2.00D  GRAD.:     8.596 HEAT: -316.2813
 CYCLE:    29 TIME:   0.055 TIME LEFT:  2.00D  GRAD.:    10.522 HEAT: -316.4296
 CYCLE:    30 TIME:   0.070 TIME LEFT:  2.00D  GRAD.:    46.036 HEAT: -316.2995
 CYCLE:    31 TIME:   0.055 TIME LEFT:  2.00D  GRAD.:    10.327 HEAT: -316.5785
 CYCLE:    32 TIME:   0.062 TIME LEFT:  2.00D  GRAD.:     6.822 HEAT: -316.6181
 CYCLE:    33 TIME:   0.055 TIME LEFT:  2.00D  GRAD.:     8.004 HEAT: -316.6843
 CYCLE:    34 TIME:   0.055 TIME LEFT:  2.00D  GRAD.:     8.823 HEAT: -316.7559
 CYCLE:    35 TIME:   0.062 TIME LEFT:  2.00D  GRAD.:    39.394 HEAT: -316.7448
 CYCLE:    36 TIME:   0.062 TIME LEFT:  2.00D  GRAD.:     8.350 HEAT: -316.9568
 CYCLE:    37 TIME:   0.055 TIME LEFT:  2.00D  GRAD.:     6.733 HEAT: -316.9992
 CYCLE:    38 TIME:   0.062 TIME LEFT:  2.00D  GRAD.:     7.390 HEAT: -317.0872
 CYCLE:    39 TIME:   0.062 TIME LEFT:  2.00D  GRAD.:    49.691 HEAT: -316.8541
 CYCLE:    40 TIME:   0.062 TIME LEFT:  2.00D  GRAD.:     8.417 HEAT: -317.1607
 CYCLE:    41 TIME:   0.055 TIME LEFT:  2.00D  GRAD.:     5.764 HEAT: -317.1833
 CYCLE:    42 TIME:   0.062 TIME LEFT:  2.00D  GRAD.:     6.017 HEAT: -317.2322
 CYCLE:    43 TIME:   0.062 TIME LEFT:  2.00D  GRAD.:     6.413 HEAT: -317.2761
 CYCLE:    44 TIME:   0.062 TIME LEFT:  2.00D  GRAD.:    12.768 HEAT: -317.3701
 CYCLE:    45 TIME:   0.062 TIME LEFT:  2.00D  GRAD.:    26.256 HEAT: -317.3275
 CYCLE:    46 TIME:   0.062 TIME LEFT:  2.00D  GRAD.:     6.462 HEAT: -317.4551
 CYCLE:    47 TIME:   0.055 TIME LEFT:  2.00D  GRAD.:     5.039 HEAT: -317.4769
 CYCLE:    48 TIME:   0.062 TIME LEFT:  2.00D  GRAD.:     6.780 HEAT: -317.5231
 CYCLE:    49 TIME:   0.062 TIME LEFT:  2.00D  GRAD.:    10.785 HEAT: -317.5907
 CYCLE:    50 TIME:   0.062 TIME LEFT:  2.00D  GRAD.:    33.812 HEAT: -317.5212
 CYCLE:    51 TIME:   0.062 TIME LEFT:  2.00D  GRAD.:     7.003 HEAT: -317.6704
 CYCLE:    52 TIME:   0.062 TIME LEFT:  2.00D  GRAD.:     5.217 HEAT: -317.6965
 CYCLE:    53 TIME:   0.062 TIME LEFT:  2.00D  GRAD.:     6.678 HEAT: -317.7432
 CYCLE:    54 TIME:   0.062 TIME LEFT:  2.00D  GRAD.:     9.982 HEAT: -317.7833
 CYCLE:    55 TIME:   0.062 TIME LEFT:  2.00D  GRAD.:     6.517 HEAT: -317.8386
 CYCLE:    56 TIME:   0.062 TIME LEFT:  2.00D  GRAD.:     7.245 HEAT: -317.8735
 CYCLE:    57 TIME:   0.062 TIME LEFT:  2.00D  GRAD.:     8.258 HEAT: -317.9091
 CYCLE:    58 TIME:   0.055 TIME LEFT:  2.00D  GRAD.:     6.760 HEAT: -317.9444
 CYCLE:    59 TIME:   0.062 TIME LEFT:  2.00D  GRAD.:     5.418 HEAT: -317.9789
 CYCLE:    60 TIME:   0.062 TIME LEFT:  2.00D  GRAD.:     5.732 HEAT: -318.0211
 CYCLE:    61 TIME:   0.062 TIME LEFT:  2.00D  GRAD.:    12.649 HEAT: -318.0291
 CYCLE:    62 TIME:   0.055 TIME LEFT:  2.00D  GRAD.:     4.649 HEAT: -318.0614
 CYCLE:    63 TIME:   0.062 TIME LEFT:  2.00D  GRAD.:     4.050 HEAT: -318.0753
 CYCLE:    64 TIME:   0.062 TIME LEFT:  2.00D  GRAD.:     5.027 HEAT: -318.1010
 CYCLE:    65 TIME:   0.062 TIME LEFT:  2.00D  GRAD.:     5.904 HEAT: -318.1370
 CYCLE:    66 TIME:   0.062 TIME LEFT:  2.00D  GRAD.:     8.458 HEAT: -318.1565
 CYCLE:    67 TIME:   0.062 TIME LEFT:  2.00D  GRAD.:     7.615 HEAT: -318.1893
 CYCLE:    68 TIME:   0.055 TIME LEFT:  2.00D  GRAD.:     6.323 HEAT: -318.2109
 CYCLE:    69 TIME:   0.062 TIME LEFT:  2.00D  GRAD.:     4.717 HEAT: -318.2357
 CYCLE:    70 TIME:   0.062 TIME LEFT:  2.00D  GRAD.:     6.436 HEAT: -318.2583
 CYCLE:    71 TIME:   0.055 TIME LEFT:  2.00D  GRAD.:    10.964 HEAT: -318.2713
 CYCLE:    72 TIME:   0.062 TIME LEFT:  2.00D  GRAD.:     3.772 HEAT: -318.2944
 CYCLE:    73 TIME:   0.062 TIME LEFT:  2.00D  GRAD.:     3.692 HEAT: -318.3072
 CYCLE:    74 TIME:   0.062 TIME LEFT:  2.00D  GRAD.:     4.404 HEAT: -318.3284
 CYCLE:    75 TIME:   0.062 TIME LEFT:  2.00D  GRAD.:    20.217 HEAT: -318.2945
 CYCLE:    76 TIME:   0.055 TIME LEFT:  2.00D  GRAD.:     3.286 HEAT: -318.3549
 CYCLE:    77 TIME:   0.062 TIME LEFT:  2.00D  GRAD.:     2.371 HEAT: -318.3597
 CYCLE:    78 TIME:   0.055 TIME LEFT:  2.00D  GRAD.:     2.424 HEAT: -318.3709
 CYCLE:    79 TIME:   0.070 TIME LEFT:  2.00D  GRAD.:     8.262 HEAT: -318.3805
 CYCLE:    80 TIME:   0.055 TIME LEFT:  2.00D  GRAD.:     5.457 HEAT: -318.3960
 CYCLE:    81 TIME:   0.062 TIME LEFT:  2.00D  GRAD.:     3.157 HEAT: -318.4067
 CYCLE:    82 TIME:   0.062 TIME LEFT:  2.00D  GRAD.:     2.869 HEAT: -318.4220
 CYCLE:    83 TIME:   0.062 TIME LEFT:  2.00D  GRAD.:     4.518 HEAT: -318.4365
 CYCLE:    84 TIME:   0.062 TIME LEFT:  2.00D  GRAD.:     6.835 HEAT: -318.4535
 CYCLE:    85 TIME:   0.055 TIME LEFT:  2.00D  GRAD.:     3.974 HEAT: -318.4706
 CYCLE:    86 TIME:   0.062 TIME LEFT:  2.00D  GRAD.:     3.589 HEAT: -318.4787
 CYCLE:    87 TIME:   0.062 TIME LEFT:  2.00D  GRAD.:     2.589 HEAT: -318.4898
 CYCLE:    88 TIME:   0.062 TIME LEFT:  2.00D  GRAD.:     4.510 HEAT: -318.5027
 CYCLE:    89 TIME:   0.062 TIME LEFT:  2.00D  GRAD.:     6.354 HEAT: -318.5054
 CYCLE:    90 TIME:   0.055 TIME LEFT:  2.00D  GRAD.:     2.406 HEAT: -318.5118
 CYCLE:    91 TIME:   0.062 TIME LEFT:  2.00D  GRAD.:     2.101 HEAT: -318.5151
 CYCLE:    92 TIME:   0.055 TIME LEFT:  2.00D  GRAD.:     3.440 HEAT: -318.5215
 CYCLE:    93 TIME:   0.062 TIME LEFT:  2.00D  GRAD.:     3.206 HEAT: -318.5284
 CYCLE:    94 TIME:   0.062 TIME LEFT:  2.00D  GRAD.:     7.356 HEAT: -318.5315
 CYCLE:    95 TIME:   0.055 TIME LEFT:  2.00D  GRAD.:     2.193 HEAT: -318.5412
 CYCLE:    96 TIME:   0.062 TIME LEFT:  2.00D  GRAD.:     2.127 HEAT: -318.5441
 CYCLE:    97 TIME:   0.062 TIME LEFT:  2.00D  GRAD.:     2.704 HEAT: -318.5506
 CYCLE:    98 TIME:   0.062 TIME LEFT:  2.00D  GRAD.:     7.189 HEAT: -318.5525
 CYCLE:    99 TIME:   0.055 TIME LEFT:  2.00D  GRAD.:     2.794 HEAT: -318.5612
 CYCLE:   100 TIME:   0.062 TIME LEFT:  2.00D  GRAD.:     2.198 HEAT: -318.5653
 CYCLE:   101 TIME:   0.062 TIME LEFT:  2.00D  GRAD.:     2.753 HEAT: -318.5688
 CYCLE:   102 TIME:   0.062 TIME LEFT:  2.00D  GRAD.:     3.164 HEAT: -318.5756
 CYCLE:   103 TIME:   0.062 TIME LEFT:  2.00D  GRAD.:     6.244 HEAT: -318.5775
 CYCLE:   104 TIME:   0.062 TIME LEFT:  2.00D  GRAD.:     2.507 HEAT: -318.5853
 CYCLE:   105 TIME:   0.062 TIME LEFT:  2.00D  GRAD.:     2.046 HEAT: -318.5881
 CYCLE:   106 TIME:   0.062 TIME LEFT:  2.00D  GRAD.:     2.143 HEAT: -318.5922
 CYCLE:   107 TIME:   0.062 TIME LEFT:  2.00D  GRAD.:     3.439 HEAT: -318.5955
 CYCLE:   108 TIME:   0.062 TIME LEFT:  2.00D  GRAD.:     2.174 HEAT: -318.5991
 CYCLE:   109 TIME:   0.055 TIME LEFT:  2.00D  GRAD.:     1.997 HEAT: -318.6025
 CYCLE:   110 TIME:   0.062 TIME LEFT:  2.00D  GRAD.:     2.377 HEAT: -318.6070
 CYCLE:   111 TIME:   0.062 TIME LEFT:  2.00D  GRAD.:     3.665 HEAT: -318.6131
 CYCLE:   112 TIME:   0.055 TIME LEFT:  2.00D  GRAD.:     4.255 HEAT: -318.6176
 CYCLE:   113 TIME:   0.062 TIME LEFT:  2.00D  GRAD.:     1.856 HEAT: -318.6227
 CYCLE:   114 TIME:   0.055 TIME LEFT:  2.00D  GRAD.:     2.013 HEAT: -318.6259
 CYCLE:   115 TIME:   0.062 TIME LEFT:  2.00D  GRAD.:     2.427 HEAT: -318.6302
 CYCLE:   116 TIME:   0.062 TIME LEFT:  2.00D  GRAD.:     2.646 HEAT: -318.6390
 CYCLE:   117 TIME:   0.062 TIME LEFT:  2.00D  GRAD.:     7.387 HEAT: -318.6402
 CYCLE:   118 TIME:   0.055 TIME LEFT:  2.00D  GRAD.:     3.003 HEAT: -318.6497
 CYCLE:   119 TIME:   0.062 TIME LEFT:  2.00D  GRAD.:     2.193 HEAT: -318.6539
 CYCLE:   120 TIME:   0.062 TIME LEFT:  2.00D  GRAD.:     2.279 HEAT: -318.6606
 CYCLE:   121 TIME:   0.062 TIME LEFT:  2.00D  GRAD.:     3.771 HEAT: -318.6675
 CYCLE:   122 TIME:   0.070 TIME LEFT:  2.00D  GRAD.:     3.118 HEAT: -318.6742
 CYCLE:   123 TIME:   0.055 TIME LEFT:  2.00D  GRAD.:     2.701 HEAT: -318.6820
 CYCLE:   124 TIME:   0.062 TIME LEFT:  2.00D  GRAD.:     3.561 HEAT: -318.6912
 CYCLE:   125 TIME:   0.062 TIME LEFT:  2.00D  GRAD.:     5.071 HEAT: -318.6991
 CYCLE:   126 TIME:   0.055 TIME LEFT:  2.00D  GRAD.:     3.345 HEAT: -318.7085
 CYCLE:   127 TIME:   0.062 TIME LEFT:  2.00D  GRAD.:     2.795 HEAT: -318.7166
 CYCLE:   128 TIME:   0.062 TIME LEFT:  2.00D  GRAD.:     4.013 HEAT: -318.7259
 CYCLE:   129 TIME:   0.062 TIME LEFT:  2.00D  GRAD.:     4.018 HEAT: -318.7355
 CYCLE:   130 TIME:   0.062 TIME LEFT:  2.00D  GRAD.:     3.196 HEAT: -318.7474
 CYCLE:   131 TIME:   0.062 TIME LEFT:  2.00D  GRAD.:     3.473 HEAT: -318.7590
 CYCLE:   132 TIME:   0.062 TIME LEFT:  2.00D  GRAD.:    11.482 HEAT: -318.7570
 CYCLE:   133 TIME:   0.055 TIME LEFT:  2.00D  GRAD.:     5.995 HEAT: -318.7745
 CYCLE:   134 TIME:   0.062 TIME LEFT:  2.00D  GRAD.:     2.966 HEAT: -318.7835
 CYCLE:   135 TIME:   0.055 TIME LEFT:  2.00D  GRAD.:     2.543 HEAT: -318.7903
 CYCLE:   136 TIME:   0.062 TIME LEFT:  2.00D  GRAD.:     3.589 HEAT: -318.7968
 CYCLE:   137 TIME:   0.062 TIME LEFT:  2.00D  GRAD.:     2.834 HEAT: -318.8051
 CYCLE:   138 TIME:   0.062 TIME LEFT:  2.00D  GRAD.:     4.356 HEAT: -318.8151
 CYCLE:   139 TIME:   0.062 TIME LEFT:  2.00D  GRAD.:     3.696 HEAT: -318.8231
 CYCLE:   140 TIME:   0.055 TIME LEFT:  2.00D  GRAD.:     2.557 HEAT: -318.8285
 CYCLE:   141 TIME:   0.062 TIME LEFT:  2.00D  GRAD.:     2.472 HEAT: -318.8350
 CYCLE:   142 TIME:   0.062 TIME LEFT:  2.00D  GRAD.:     4.119 HEAT: -318.8422
 CYCLE:   143 TIME:   0.062 TIME LEFT:  2.00D  GRAD.:     3.105 HEAT: -318.8501
 CYCLE:   144 TIME:   0.062 TIME LEFT:  2.00D  GRAD.:     3.520 HEAT: -318.8562
 CYCLE:   145 TIME:   0.062 TIME LEFT:  2.00D  GRAD.:     4.186 HEAT: -318.8687
 CYCLE:   146 TIME:   0.055 TIME LEFT:  2.00D  GRAD.:     4.170 HEAT: -318.8793
 CYCLE:   147 TIME:   0.070 TIME LEFT:  2.00D  GRAD.:     3.738 HEAT: -318.8930
 CYCLE:   148 TIME:   0.055 TIME LEFT:  2.00D  GRAD.:     4.559 HEAT: -318.9056
 CYCLE:   149 TIME:   0.055 TIME LEFT:  2.00D  GRAD.:     3.459 HEAT: -318.9166
 CYCLE:   150 TIME:   0.070 TIME LEFT:  2.00D  GRAD.:     4.728 HEAT: -318.9236
 CYCLE:   151 TIME:   0.055 TIME LEFT:  2.00D  GRAD.:     6.414 HEAT: -318.9337
 CYCLE:   152 TIME:   0.062 TIME LEFT:  2.00D  GRAD.:     3.349 HEAT: -318.9438
 CYCLE:   153 TIME:   0.055 TIME LEFT:  2.00D  GRAD.:     3.331 HEAT: -318.9523
 CYCLE:   154 TIME:   0.070 TIME LEFT:  2.00D  GRAD.:     3.933 HEAT: -318.9585
 CYCLE:   155 TIME:   0.062 TIME LEFT:  2.00D  GRAD.:     7.775 HEAT: -318.9732
 CYCLE:   156 TIME:   0.062 TIME LEFT:  2.00D  GRAD.:     5.629 HEAT: -318.9823
 CYCLE:   157 TIME:   0.055 TIME LEFT:  2.00D  GRAD.:     3.660 HEAT: -318.9913
 CYCLE:   158 TIME:   0.062 TIME LEFT:  2.00D  GRAD.:     2.735 HEAT: -318.9971
 CYCLE:   159 TIME:   0.062 TIME LEFT:  2.00D  GRAD.:     3.545 HEAT: -319.0042
 CYCLE:   160 TIME:   0.062 TIME LEFT:  2.00D  GRAD.:     4.206 HEAT: -319.0165
 CYCLE:   161 TIME:   0.062 TIME LEFT:  2.00D  GRAD.:     6.785 HEAT: -319.0226
 CYCLE:   162 TIME:   0.055 TIME LEFT:  2.00D  GRAD.:     2.599 HEAT: -319.0354
 CYCLE:   163 TIME:   0.062 TIME LEFT:  2.00D  GRAD.:     2.115 HEAT: -319.0398
 CYCLE:   164 TIME:   0.062 TIME LEFT:  2.00D  GRAD.:     2.844 HEAT: -319.0482
 CYCLE:   165 TIME:   0.062 TIME LEFT:  2.00D  GRAD.:     7.412 HEAT: -319.0495
 CYCLE:   166 TIME:   0.055 TIME LEFT:  2.00D  GRAD.:     2.454 HEAT: -319.0584
 CYCLE:   167 TIME:   0.062 TIME LEFT:  2.00D  GRAD.:     1.927 HEAT: -319.0614
 CYCLE:   168 TIME:   0.062 TIME LEFT:  2.00D  GRAD.:     2.483 HEAT: -319.0652
 CYCLE:   169 TIME:   0.062 TIME LEFT:  2.00D  GRAD.:     3.331 HEAT: -319.0735
 CYCLE:   170 TIME:   0.055 TIME LEFT:  2.00D  GRAD.:     6.331 HEAT: -319.0811
 CYCLE:   171 TIME:   0.062 TIME LEFT:  2.00D  GRAD.:     3.468 HEAT: -319.0904
 CYCLE:   172 TIME:   0.055 TIME LEFT:  2.00D  GRAD.:     2.872 HEAT: -319.0954
 CYCLE:   173 TIME:   0.070 TIME LEFT:  2.00D  GRAD.:     2.261 HEAT: -319.1032
 CYCLE:   174 TIME:   0.062 TIME LEFT:  2.00D  GRAD.:     4.542 HEAT: -319.1123
 CYCLE:   175 TIME:   0.062 TIME LEFT:  2.00D  GRAD.:     5.205 HEAT: -319.1175
 CYCLE:   176 TIME:   0.062 TIME LEFT:  2.00D  GRAD.:     3.016 HEAT: -319.1230
 CYCLE:   177 TIME:   0.062 TIME LEFT:  2.00D  GRAD.:     2.470 HEAT: -319.1289
 CYCLE:   178 TIME:   0.055 TIME LEFT:  2.00D  GRAD.:     2.620 HEAT: -319.1342
 CYCLE:   179 TIME:   0.070 TIME LEFT:  2.00D  GRAD.:     3.942 HEAT: -319.1440
 CYCLE:   180 TIME:   0.055 TIME LEFT:  2.00D  GRAD.:    12.392 HEAT: -319.1297
 CYCLE:   181 TIME:   0.062 TIME LEFT:  2.00D  GRAD.:     2.489 HEAT: -319.1555
 CYCLE:   182 TIME:   0.062 TIME LEFT:  2.00D  GRAD.:     1.499 HEAT: -319.1577
 CYCLE:   183 TIME:   0.055 TIME LEFT:  2.00D  GRAD.:     1.600 HEAT: -319.1622
 CYCLE:   184 TIME:   0.070 TIME LEFT:  2.00D  GRAD.:     5.440 HEAT: -319.1648
 CYCLE:   185 TIME:   0.055 TIME LEFT:  2.00D  GRAD.:     4.029 HEAT: -319.1721
 CYCLE:   186 TIME:   0.062 TIME LEFT:  2.00D  GRAD.:     1.690 HEAT: -319.1750
 CYCLE:   187 TIME:   0.062 TIME LEFT:  2.00D  GRAD.:     2.210 HEAT: -319.1783
 CYCLE:   188 TIME:   0.062 TIME LEFT:  2.00D  GRAD.:     2.836 HEAT: -319.1822
 CYCLE:   189 TIME:   0.062 TIME LEFT:  2.00D  GRAD.:     4.223 HEAT: -319.1875
 CYCLE:   190 TIME:   0.062 TIME LEFT:  2.00D  GRAD.:     5.271 HEAT: -319.1876
 CYCLE:   191 TIME:   0.062 TIME LEFT:  2.00D  GRAD.:     2.020 HEAT: -319.1942
 CYCLE:   192 TIME:   0.062 TIME LEFT:  2.00D  GRAD.:     3.218 HEAT: -319.1952
 CYCLE:   193 TIME:   0.062 TIME LEFT:  2.00D  GRAD.:     2.067 HEAT: -319.2002
 CYCLE:   194 TIME:   0.070 TIME LEFT:  2.00D  GRAD.:     3.693 HEAT: -319.2035
 CYCLE:   195 TIME:   0.062 TIME LEFT:  2.00D  GRAD.:     3.039 HEAT: -319.2096
 CYCLE:   196 TIME:   0.062 TIME LEFT:  2.00D  GRAD.:     2.073 HEAT: -319.2151
 CYCLE:   197 TIME:   0.055 TIME LEFT:  2.00D  GRAD.:     2.275 HEAT: -319.2217
 CYCLE:   198 TIME:   0.070 TIME LEFT:  2.00D  GRAD.:    10.730 HEAT: -319.2183
 CYCLE:   199 TIME:   0.055 TIME LEFT:  2.00D  GRAD.:     2.332 HEAT: -319.2348
 CYCLE:   200 TIME:   0.062 TIME LEFT:  2.00D  GRAD.:     1.674 HEAT: -319.2381
 CYCLE:   201 TIME:   0.062 TIME LEFT:  2.00D  GRAD.:     4.135 HEAT: -319.2393
 CYCLE:   202 TIME:   0.062 TIME LEFT:  2.00D  GRAD.:     2.202 HEAT: -319.2464
 CYCLE:   203 TIME:   0.062 TIME LEFT:  2.00D  GRAD.:     2.838 HEAT: -319.2485
 CYCLE:   204 TIME:   0.062 TIME LEFT:  2.00D  GRAD.:     1.530 HEAT: -319.2511
 CYCLE:   205 TIME:   0.062 TIME LEFT:  2.00D  GRAD.:     2.408 HEAT: -319.2550
 CYCLE:   206 TIME:   0.062 TIME LEFT:  2.00D  GRAD.:     3.163 HEAT: -319.2590
 CYCLE:   207 TIME:   0.062 TIME LEFT:  2.00D  GRAD.:     3.201 HEAT: -319.2633
 CYCLE:   208 TIME:   0.062 TIME LEFT:  2.00D  GRAD.:     6.128 HEAT: -319.2625
 CYCLE:   209 TIME:   0.055 TIME LEFT:  2.00D  GRAD.:     2.512 HEAT: -319.2713
 CYCLE:   210 TIME:   0.070 TIME LEFT:  2.00D  GRAD.:     3.229 HEAT: -319.2743
 CYCLE:   211 TIME:   0.062 TIME LEFT:  2.00D  GRAD.:     2.163 HEAT: -319.2780
 CYCLE:   212 TIME:   0.062 TIME LEFT:  2.00D  GRAD.:     2.303 HEAT: -319.2805
 CYCLE:   213 TIME:   0.062 TIME LEFT:  2.00D  GRAD.:     2.298 HEAT: -319.2826
 CYCLE:   214 TIME:   0.062 TIME LEFT:  2.00D  GRAD.:     2.999 HEAT: -319.2867
 CYCLE:   215 TIME:   0.062 TIME LEFT:  2.00D  GRAD.:     1.892 HEAT: -319.2900
 CYCLE:   216 TIME:   0.062 TIME LEFT:  2.00D  GRAD.:     2.696 HEAT: -319.2919
 CYCLE:   217 TIME:   0.062 TIME LEFT:  2.00D  GRAD.:     3.415 HEAT: -319.2945
 CYCLE:   218 TIME:   0.062 TIME LEFT:  2.00D  GRAD.:     2.235 HEAT: -319.2983
 CYCLE:   219 TIME:   0.062 TIME LEFT:  2.00D  GRAD.:     2.776 HEAT: -319.2992
 CYCLE:   220 TIME:   0.070 TIME LEFT:  2.00D  GRAD.:     3.288 HEAT: -319.3047
 CYCLE:   221 TIME:   0.070 TIME LEFT:  2.00D  GRAD.:     2.776 HEAT: -319.3079
 CYCLE:   222 TIME:   0.055 TIME LEFT:  2.00D  GRAD.:     1.560 HEAT: -319.3103
 CYCLE:   223 TIME:   0.070 TIME LEFT:  2.00D  GRAD.:     3.091 HEAT: -319.3110
 CYCLE:   224 TIME:   0.055 TIME LEFT:  2.00D  GRAD.:     1.732 HEAT: -319.3142
 CYCLE:   225 TIME:   0.070 TIME LEFT:  2.00D  GRAD.:     1.698 HEAT: -319.3165
 CYCLE:   226 TIME:   0.062 TIME LEFT:  2.00D  GRAD.:     1.640 HEAT: -319.3197
 CYCLE:   227 TIME:   0.070 TIME LEFT:  2.00D  GRAD.:     2.492 HEAT: -319.3253
 CYCLE:   228 TIME:   0.062 TIME LEFT:  2.00D  GRAD.:     6.204 HEAT: -319.3256
 CYCLE:   229 TIME:   0.055 TIME LEFT:  2.00D  GRAD.:     2.484 HEAT: -319.3308
 CYCLE:   230 TIME:   0.062 TIME LEFT:  2.00D  GRAD.:     1.402 HEAT: -319.3333
 CYCLE:   231 TIME:   0.062 TIME LEFT:  2.00D  GRAD.:     2.149 HEAT: -319.3359
 CYCLE:   232 TIME:   0.062 TIME LEFT:  2.00D  GRAD.:     2.515 HEAT: -319.3392
 CYCLE:   233 TIME:   0.062 TIME LEFT:  2.00D  GRAD.:     3.176 HEAT: -319.3424
 CYCLE:   234 TIME:   0.055 TIME LEFT:  2.00D  GRAD.:     2.138 HEAT: -319.3446
 CYCLE:   235 TIME:   0.062 TIME LEFT:  2.00D  GRAD.:     1.983 HEAT: -319.3468
 CYCLE:   236 TIME:   0.062 TIME LEFT:  2.00D  GRAD.:     2.327 HEAT: -319.3507
 CYCLE:   237 TIME:   0.055 TIME LEFT:  2.00D  GRAD.:     2.057 HEAT: -319.3544
 CYCLE:   238 TIME:   0.062 TIME LEFT:  2.00D  GRAD.:     2.821 HEAT: -319.3585
 CYCLE:   239 TIME:   0.062 TIME LEFT:  2.00D  GRAD.:     2.433 HEAT: -319.3614
 CYCLE:   240 TIME:   0.062 TIME LEFT:  2.00D  GRAD.:     1.928 HEAT: -319.3645
 CYCLE:   241 TIME:   0.062 TIME LEFT:  2.00D  GRAD.:     2.225 HEAT: -319.3685
 CYCLE:   242 TIME:   0.062 TIME LEFT:  2.00D  GRAD.:     3.615 HEAT: -319.3735
 CYCLE:   243 TIME:   0.062 TIME LEFT:  2.00D  GRAD.:     3.034 HEAT: -319.3770
 CYCLE:   244 TIME:   0.062 TIME LEFT:  2.00D  GRAD.:     2.396 HEAT: -319.3820
 CYCLE:   245 TIME:   0.062 TIME LEFT:  2.00D  GRAD.:     4.006 HEAT: -319.3860
 CYCLE:   246 TIME:   0.055 TIME LEFT:  2.00D  GRAD.:     2.833 HEAT: -319.3908
 CYCLE:   247 TIME:   0.062 TIME LEFT:  2.00D  GRAD.:     2.428 HEAT: -319.3963
 CYCLE:   248 TIME:   0.062 TIME LEFT:  2.00D  GRAD.:     3.527 HEAT: -319.4016
 CYCLE:   249 TIME:   0.062 TIME LEFT:  2.00D  GRAD.:     4.817 HEAT: -319.4055
 CYCLE:   250 TIME:   0.055 TIME LEFT:  2.00D  GRAD.:     2.449 HEAT: -319.4113
 CYCLE:   251 TIME:   0.062 TIME LEFT:  2.00D  GRAD.:     2.346 HEAT: -319.4152
 CYCLE:   252 TIME:   0.062 TIME LEFT:  2.00D  GRAD.:     2.176 HEAT: -319.4198
 CYCLE:   253 TIME:   0.070 TIME LEFT:  2.00D  GRAD.:     2.418 HEAT: -319.4275
 CYCLE:   254 TIME:   0.062 TIME LEFT:  2.00D  GRAD.:     9.188 HEAT: -319.4176
 CYCLE:   255 TIME:   0.062 TIME LEFT:  2.00D  GRAD.:     4.050 HEAT: -319.4376
 CYCLE:   256 TIME:   0.062 TIME LEFT:  2.00D  GRAD.:     2.438 HEAT: -319.4401
 CYCLE:   257 TIME:   0.055 TIME LEFT:  2.00D  GRAD.:     1.539 HEAT: -319.4444
 CYCLE:   258 TIME:   0.062 TIME LEFT:  2.00D  GRAD.:     2.427 HEAT: -319.4510
 CYCLE:   259 TIME:   0.070 TIME LEFT:  2.00D  GRAD.:     4.586 HEAT: -319.4573
 CYCLE:   260 TIME:   0.055 TIME LEFT:  2.00D  GRAD.:     3.190 HEAT: -319.4622
 CYCLE:   261 TIME:   0.062 TIME LEFT:  2.00D  GRAD.:     2.276 HEAT: -319.4648
 CYCLE:   262 TIME:   0.055 TIME LEFT:  2.00D  GRAD.:     2.155 HEAT: -319.4692
 CYCLE:   263 TIME:   0.062 TIME LEFT:  2.00D  GRAD.:     2.334 HEAT: -319.4734
 CYCLE:   264 TIME:   0.070 TIME LEFT:  2.00D  GRAD.:     6.769 HEAT: -319.4743
 CYCLE:   265 TIME:   0.055 TIME LEFT:  2.00D  GRAD.:     2.289 HEAT: -319.4825
 CYCLE:   266 TIME:   0.062 TIME LEFT:  2.00D  GRAD.:     1.579 HEAT: -319.4839
 CYCLE:   267 TIME:   0.070 TIME LEFT:  2.00D  GRAD.:     2.328 HEAT: -319.4880
 CYCLE:   268 TIME:   0.062 TIME LEFT:  2.00D  GRAD.:     2.781 HEAT: -319.4913
 CYCLE:   269 TIME:   0.062 TIME LEFT:  2.00D  GRAD.:     4.606 HEAT: -319.4909
 CYCLE:   270 TIME:   0.055 TIME LEFT:  2.00D  GRAD.:     1.629 HEAT: -319.4953
 CYCLE:   271 TIME:   0.070 TIME LEFT:  2.00D  GRAD.:     2.109 HEAT: -319.4962
 CYCLE:   272 TIME:   0.062 TIME LEFT:  2.00D  GRAD.:     1.825 HEAT: -319.4998
 CYCLE:   273 TIME:   0.070 TIME LEFT:  2.00D  GRAD.:     2.932 HEAT: -319.5034
 CYCLE:   274 TIME:   0.062 TIME LEFT:  2.00D  GRAD.:     2.951 HEAT: -319.5084
 CYCLE:   275 TIME:   0.055 TIME LEFT:  2.00D  GRAD.:     1.966 HEAT: -319.5124
 CYCLE:   276 TIME:   0.062 TIME LEFT:  2.00D  GRAD.:     1.658 HEAT: -319.5177
 CYCLE:   277 TIME:   0.070 TIME LEFT:  2.00D  GRAD.:     5.032 HEAT: -319.5198
 CYCLE:   278 TIME:   0.055 TIME LEFT:  2.00D  GRAD.:     1.787 HEAT: -319.5261
 CYCLE:   279 TIME:   0.062 TIME LEFT:  2.00D  GRAD.:     1.609 HEAT: -319.5285
 CYCLE:   280 TIME:   0.062 TIME LEFT:  2.00D  GRAD.:     1.855 HEAT: -319.5315
 CYCLE:   281 TIME:   0.070 TIME LEFT:  2.00D  GRAD.:    12.258 HEAT: -319.5173
 CYCLE:   282 TIME:   0.055 TIME LEFT:  2.00D  GRAD.:     1.946 HEAT: -319.5384
 CYCLE:   283 TIME:   0.062 TIME LEFT:  2.00D  GRAD.:     1.372 HEAT: -319.5399
 CYCLE:   284 TIME:   0.070 TIME LEFT:  2.00D  GRAD.:     2.226 HEAT: -319.5449
 CYCLE:   285 TIME:   0.062 TIME LEFT:  2.00D  GRAD.:     3.831 HEAT: -319.5489
 CYCLE:   286 TIME:   0.062 TIME LEFT:  2.00D  GRAD.:     2.267 HEAT: -319.5512
 CYCLE:   287 TIME:   0.062 TIME LEFT:  2.00D  GRAD.:     1.791 HEAT: -319.5542
 CYCLE:   288 TIME:   0.062 TIME LEFT:  2.00D  GRAD.:     3.063 HEAT: -319.5592
 CYCLE:   289 TIME:   0.055 TIME LEFT:  2.00D  GRAD.:     1.955 HEAT: -319.5636
 CYCLE:   290 TIME:   0.070 TIME LEFT:  2.00D  GRAD.:     4.011 HEAT: -319.5655
 CYCLE:   291 TIME:   0.062 TIME LEFT:  2.00D  GRAD.:     4.211 HEAT: -319.5701
 CYCLE:   292 TIME:   0.062 TIME LEFT:  2.00D  GRAD.:     1.812 HEAT: -319.5732
 CYCLE:   293 TIME:   0.062 TIME LEFT:  2.00D  GRAD.:     1.817 HEAT: -319.5752
 CYCLE:   294 TIME:   0.062 TIME LEFT:  2.00D  GRAD.:     2.521 HEAT: -319.5781
 CYCLE:   295 TIME:   0.062 TIME LEFT:  2.00D  GRAD.:     3.663 HEAT: -319.5832
 CYCLE:   296 TIME:   0.055 TIME LEFT:  2.00D  GRAD.:     2.210 HEAT: -319.5889
 CYCLE:   297 TIME:   0.062 TIME LEFT:  2.00D  GRAD.:     1.907 HEAT: -319.5933
 CYCLE:   298 TIME:   0.078 TIME LEFT:  2.00D  GRAD.:     2.485 HEAT: -319.5983
 CYCLE:   299 TIME:   0.062 TIME LEFT:  2.00D  GRAD.:     2.758 HEAT: -319.6024
 CYCLE:   300 TIME:   0.062 TIME LEFT:  2.00D  GRAD.:     3.977 HEAT: -319.6049
 CYCLE:   301 TIME:   0.062 TIME LEFT:  2.00D  GRAD.:     2.106 HEAT: -319.6098
 CYCLE:   302 TIME:   0.062 TIME LEFT:  2.00D  GRAD.:     2.358 HEAT: -319.6127
 CYCLE:   303 TIME:   0.055 TIME LEFT:  2.00D  GRAD.:     1.822 HEAT: -319.6164
 CYCLE:   304 TIME:   0.070 TIME LEFT:  2.00D  GRAD.:     3.143 HEAT: -319.6200
 CYCLE:   305 TIME:   0.062 TIME LEFT:  2.00D  GRAD.:    30.762 HEAT: -319.4860
 CYCLE:   306 TIME:   0.062 TIME LEFT:  2.00D  GRAD.:    10.040 HEAT: -319.6015
 CYCLE:   307 TIME:   0.062 TIME LEFT:  2.00D  GRAD.:     7.689 HEAT: -319.6137
 CYCLE:   308 TIME:   0.078 TIME LEFT:  2.00D  GRAD.:    10.333 HEAT: -319.6050
 CYCLE:   309 TIME:   0.070 TIME LEFT:  2.00D  GRAD.:     1.724 HEAT: -319.6309
 CYCLE:   310 TIME:   0.062 TIME LEFT:  2.00D  GRAD.:     4.569 HEAT: -319.6230
 CYCLE:   311 TIME:   0.062 TIME LEFT:  2.00D  GRAD.:     3.058 HEAT: -319.6334
 CYCLE:   312 TIME:   0.062 TIME LEFT:  2.00D  GRAD.:     5.609 HEAT: -319.6305
 CYCLE:   313 TIME:   0.062 TIME LEFT:  2.00D  GRAD.:     0.977 HEAT: -319.6358

 -------------------------------------------------------------------------------
 PM7 XYZ

 Lipophilicity_2052 - geometry optimisation


     HERBERTS TEST WAS SATISFIED IN BFGS                      
     SCF FIELD WAS ACHIEVED                                   


                              PM7 CALCULATION
                                                       MOPAC v23.0.3 Linux
                                                       Fri Jul 25 19:04:16 2025




          FINAL HEAT OF FORMATION =       -319.63577 KCAL/MOL =   -1337.35608 KJ/MOL


          COSMO AREA              =        436.87 SQUARE ANGSTROMS
          COSMO VOLUME            =        571.41 CUBIC ANGSTROMS

          GRADIENT NORM           =          0.97747          =       0.11600 PER ATOM
          IONIZATION POTENTIAL    =          8.919543 EV
          HOMO LUMO ENERGIES (EV) =         -8.920  0.277
          NO. OF FILLED LEVELS    =         88
          MOLECULAR WEIGHT        =        436.5874         POINT GROUP:  C1  

          MOLECULAR DIMENSIONS (Angstroms)

            Atom       Atom       Distance
            H    70    H    48    15.20825
            H    55    H    34    10.21769
            O    29    H    52     6.72668


          SCF CALCULATIONS        =        314

          WALL-CLOCK TIME         =     19.406 SECONDS
          COMPUTATION TIME        =          6 MINUTES AND 27.174 SECONDS




   ATOM   CHEMICAL          X               Y               Z
  NUMBER   SYMBOL      (ANGSTROMS)     (ANGSTROMS)     (ANGSTROMS)

     1       C         -3.86679739  *   3.14988829  *  -0.98444738  *
     2       C         -3.24810076  *   1.94682564  *  -0.27675752  *
     3       C         -1.75588050  *   2.13468171  *   0.06103530  *
     4       C         -0.88817238  *   2.12162625  *  -1.20354860  *
     5       C         -1.50475332  *   3.40723230  *   0.87209538  *
     6       C         -1.29271794  *   0.95521361  *   0.91320132  *
     7       O         -0.50973896  *   0.98274220  *   1.82782254  *
     8       O         -1.87762660  *  -0.18687453  *   0.48670033  *
     9       C         -1.54661827  *  -1.41849197  *   1.14751897  *
    10       C         -2.85442204  *  -1.86824604  *   1.81618597  *
    11       C         -3.25924686  *  -3.30468529  *   1.43204675  *
    12       C         -4.63923018  *  -3.63662558  *   2.00571380  *
    13       C         -3.23123708  *  -3.42201034  *  -0.06010865  *
    14       C         -2.16370951  *  -2.96101392  *  -0.73300625  *
    15       C         -2.05489636  *  -3.06916610  *  -2.18118378  *
    16       C         -0.88828301  *  -2.90684545  *  -2.81870319  *
    17       C          0.36873678  *  -2.56730055  *  -2.07280690  *
    18       C          1.07180815  *  -3.86826654  *  -1.66498940  *
    19       C         -0.00004940  *  -1.66238312  *  -0.87073532  *
    20       C          1.24532782  *  -1.21858298  *  -0.09163363  *
    21       C          2.13647647  *  -0.29702344  *  -0.93357547  *
    22       C          3.02981924  *   0.54695605  *  -0.01503306  *
    23       O          3.88392718  *  -0.28259090  *   0.74425554  *
    24       C          3.87783363  *   1.55359789  *  -0.81285723  *
    25       C          4.00517863  *   2.89200455  *  -0.07273861  *
    26       O          2.71616611  *   3.42292417  *   0.20487828  *
    27       C          4.63913510  *   2.75139165  *   1.31808992  *
    28       C          5.92539088  *   3.48144425  *   1.46831721  *
    29       O          6.40331973  *   3.96036356  *   2.46270494  *
    30       O          6.60581600  *   3.55441984  *   0.28796067  *
    31       C         -1.01759028  *  -2.37261962  *   0.04738186  *
    32       H         -4.89220608  *   2.92766421  *  -1.30342717  *
    33       H         -3.30131593  *   3.43183376  *  -1.87878988  *
    34       H         -3.91290255  *   4.02675208  *  -0.32899929  *
    35       H         -3.81313046  *   1.73216750  *   0.65181482  *
    36       H         -3.36928828  *   1.04112772  *  -0.90884397  *
    37       H         -1.05879566  *   1.21344754  *  -1.79654365  *
    38       H          0.17847323  *   2.17248197  *  -0.95517393  *
    39       H         -1.12028254  *   2.97773907  *  -1.84743699  *
    40       H         -1.65654503  *   4.30672618  *   0.26718782  *
    41       H         -2.17142018  *   3.47169042  *   1.73985165  *
    42       H         -0.47449838  *   3.43915159  *   1.26004469  *
    43       H         -0.75227580  *  -1.23814281  *   1.90904145  *
    44       H         -3.66659414  *  -1.17297511  *   1.51211749  *
    45       H         -2.77498837  *  -1.77485755  *   2.91342838  *
    46       H         -2.51100919  *  -4.02014182  *   1.86346411  *
    47       H         -5.41607339  *  -2.98616851  *   1.58834506  *
    48       H         -4.92217924  *  -4.67172862  *   1.78433509  *
    49       H         -4.65827387  *  -3.51705122  *   3.09443318  *
    50       H         -4.08785063  *  -3.87404750  *  -0.54154711  *
    51       H         -2.97260869  *  -3.30643211  *  -2.71797376  *
    52       H         -0.78900120  *  -3.01841504  *  -3.89292842  *
    53       H          1.05477955  *  -1.98953347  *  -2.74054805  *
    54       H          1.99897083  *  -3.66838344  *  -1.11834842  *
    55       H          1.32632297  *  -4.47019807  *  -2.54399234  *
    56       H          0.43032303  *  -4.48540395  *  -1.02444758  *
    57       H         -0.50391017  *  -0.75275412  *  -1.29028512  *
    58       H          0.94033759  *  -0.68510309  *   0.83526751  *
    59       H          1.82389918  *  -2.08966318  *   0.26516519  *
    60       H          2.74820924  *  -0.88947912  *  -1.63655287  *
    61       H          1.51223486  *   0.36746581  *  -1.56001037  *
    62       H          2.43029857  *   1.05313169  *   0.78505718  *
    63       H          4.35421307  *  -0.92686381  *   0.18557722  *
    64       H          3.45429467  *   1.72086432  *  -1.81804148  *
    65       H          4.89039888  *   1.13780307  *  -0.98627565  *
    66       H          4.53754527  *   3.64162136  *  -0.70339794  *
    67       H          2.16110579  *   3.44656706  *  -0.59409421  *
    68       H          4.79302041  *   1.67416702  *   1.58177673  *
    69       H          3.91026943  *   3.11679123  *   2.08879112  *
    70       H          7.46438616  *   4.03661327  *   0.35997955  *
    71       H         -0.49379969  *  -3.21702274  *   0.57064418  *

                             CARTESIAN COORDINATES

   1    C       -3.866797395     3.149888289    -0.984447380
   2    C       -3.248100761     1.946825639    -0.276757522
   3    C       -1.755880498     2.134681708     0.061035297
   4    C       -0.888172376     2.121626252    -1.203548599
   5    C       -1.504753321     3.407232295     0.872095377
   6    C       -1.292717938     0.955213612     0.913201318
   7    O       -0.509738963     0.982742198     1.827822540
   8    O       -1.877626605    -0.186874531     0.486700333
   9    C       -1.546618270    -1.418491972     1.147518973
  10    C       -2.854422041    -1.868246044     1.816185970
  11    C       -3.259246863    -3.304685292     1.432046750
  12    C       -4.639230179    -3.636625580     2.005713797
  13    C       -3.231237081    -3.422010342    -0.060108647
  14    C       -2.163709505    -2.961013916    -0.733006254
  15    C       -2.054896359    -3.069166098    -2.181183783
  16    C       -0.888283009    -2.906845449    -2.818703189
  17    C        0.368736781    -2.567300550    -2.072806898
  18    C        1.071808147    -3.868266544    -1.664989398
  19    C       -0.000049404    -1.662383117    -0.870735325
  20    C        1.245327822    -1.218582984    -0.091633629
  21    C        2.136476471    -0.297023442    -0.933575470
  22    C        3.029819243     0.546956047    -0.015033064
  23    O        3.883927184    -0.282590902     0.744255542
  24    C        3.877833625     1.553597887    -0.812857226
  25    C        4.005178631     2.892004550    -0.072738607
  26    O        2.716166110     3.422924175     0.204878278
  27    C        4.639135097     2.751391654     1.318089921
  28    C        5.925390882     3.481444245     1.468317214
  29    O        6.403319729     3.960363564     2.462704941
  30    O        6.605816004     3.554419839     0.287960672
  31    C       -1.017590283    -2.372619621     0.047381858
  32    H       -4.892206083     2.927664206    -1.303427169
  33    H       -3.301315934     3.431833763    -1.878789877
  34    H       -3.912902553     4.026752078    -0.328999287
  35    H       -3.813130457     1.732167495     0.651814821
  36    H       -3.369288276     1.041127721    -0.908843971
  37    H       -1.058795664     1.213447541    -1.796543653
  38    H        0.178473234     2.172481969    -0.955173930
  39    H       -1.120282541     2.977739073    -1.847436994
  40    H       -1.656545028     4.306726183     0.267187817
  41    H       -2.171420180     3.471690423     1.739851650
  42    H       -0.474498376     3.439151585     1.260044689
  43    H       -0.752275797    -1.238142812     1.909041452
  44    H       -3.666594139    -1.172975114     1.512117486
  45    H       -2.774988365    -1.774857552     2.913428375
  46    H       -2.511009185    -4.020141815     1.863464115
  47    H       -5.416073387    -2.986168511     1.588345060
  48    H       -4.922179240    -4.671728617     1.784335095
  49    H       -4.658273866    -3.517051216     3.094433179
  50    H       -4.087850632    -3.874047504    -0.541547105
  51    H       -2.972608692    -3.306432113    -2.717973761
  52    H       -0.789001196    -3.018415037    -3.892928417
  53    H        1.054779550    -1.989533467    -2.740548047
  54    H        1.998970828    -3.668383443    -1.118348422
  55    H        1.326322968    -4.470198072    -2.543992344
  56    H        0.430323028    -4.485403951    -1.024447581
  57    H       -0.503910167    -0.752754124    -1.290285122
  58    H        0.940337590    -0.685103091     0.835267510
  59    H        1.823899176    -2.089663177     0.265165188
  60    H        2.748209243    -0.889479120    -1.636552867
  61    H        1.512234861     0.367465809    -1.560010369
  62    H        2.430298565     1.053131694     0.785057182
  63    H        4.354213071    -0.926863807     0.185577215
  64    H        3.454294672     1.720864316    -1.818041484
  65    H        4.890398885     1.137803066    -0.986275645
  66    H        4.537545267     3.641621356    -0.703397944
  67    H        2.161105791     3.446567061    -0.594094214
  68    H        4.793020406     1.674167016     1.581776728
  69    H        3.910269435     3.116791232     2.088791124
  70    H        7.464386162     4.036613266     0.359979545
  71    H       -0.493799691    -3.217022744     0.570644175


           Empirical Formula: C25 H40 O6  =    71 atoms



      MOLECULAR POINT GROUP   :   C1  


                  EIGENVALUES  
 -31.61445 -31.48237 -31.05358 -30.72334 -29.92050 -29.79397 -29.70838 -29.49651
 -29.30656 -27.81021 -27.48640 -26.86154 -26.55608 -26.03564 -25.52815 -24.86220
 -24.40590 -24.22241 -23.25248 -22.68938 -22.27377 -21.33215 -21.11777 -20.98732
 -20.89517 -20.28177 -19.92877 -19.08986 -18.65870 -17.98336 -17.66328 -17.34814
 -17.31439 -17.08087 -17.04270 -16.73472 -16.58833 -16.16948 -16.14255 -15.87792
 -15.78188 -15.67221 -15.55627 -15.29932 -15.01190 -14.94740 -14.84971 -14.66577
 -14.45219 -14.37063 -14.20056 -13.94900 -13.80691 -13.73125 -13.57545 -13.51294
 -13.44719 -13.37712 -13.26299 -13.21830 -13.17822 -13.12125 -13.03858 -12.97834
 -12.77348 -12.66044 -12.47814 -12.35863 -12.34744 -12.28273 -12.20691 -12.04790
 -12.02182 -11.92180 -11.65796 -11.61798 -11.56508 -11.53419 -11.45669 -11.15128
 -11.08078 -11.02996 -10.89352 -10.71194 -10.53342 -10.43759 -10.37331  -8.91954
   0.27747   1.05070   1.24358   1.71015   1.94407   2.08355   2.64884   2.86387
   3.21056   3.32370   3.35440   3.45941   3.47639   3.64575   3.74192   3.76122
   3.79105   3.91792   4.01122   4.03456   4.10707   4.18049   4.34350   4.37399
   4.44506   4.51861   4.53959   4.62450   4.72015   4.78265   4.81071   4.91258
   5.08547   5.09815   5.23489   5.27673   5.39330   5.40990   5.45850   5.48343
   5.53564   5.61108   5.63591   5.66910   5.69883   5.73992   5.74625   5.76306
   5.77549   5.80497   5.83549   5.85076   5.85461   5.89160   5.92075   5.98624
   5.99922   6.03593   6.10067   6.12071   6.15672   6.21163   6.24840   6.26140
   6.32139   6.34054   6.37319   6.47648   6.50957   6.57448   6.73649   6.74376
   6.94087   6.94381   7.00915   7.06982


              NET ATOMIC CHARGES AND DIPOLE CONTRIBUTIONS

  ATOM NO.   TYPE          CHARGE      No. of ELECS.   s-Pop       p-Pop       
    1          C          -0.430624        4.4306     1.05077     3.37985
    2          C          -0.263355        4.2634     1.05984     3.20351
    3          C           0.044412        3.9556     1.06517     2.89042
    4          C          -0.454151        4.4542     1.05808     3.39607
    5          C          -0.454349        4.4543     1.05681     3.39753
    6          C           0.578459        3.4215     1.14405     2.27749
    7          O          -0.520596        6.5206     1.87590     4.64470
    8          O          -0.445374        6.4454     1.86409     4.58128
    9          C           0.124555        3.8754     1.10366     2.77179
   10          C          -0.322064        4.3221     1.07109     3.25097
   11          C          -0.071540        4.0715     1.05211     3.01943
   12          C          -0.451641        4.4516     1.05544     3.39620
   13          C          -0.203198        4.2032     1.09434     3.10886
   14          C          -0.007291        4.0073     1.07085     2.93644
   15          C          -0.174714        4.1747     1.08246     3.09226
   16          C          -0.153090        4.1531     1.09635     3.05674
   17          C          -0.102424        4.1024     1.05854     3.04388
   18          C          -0.441251        4.4413     1.05434     3.38691
   19          C          -0.114438        4.1144     1.06990     3.04454
   20          C          -0.289285        4.2893     1.06235     3.22693
   21          C          -0.337379        4.3374     1.06966     3.26772
   22          C           0.172643        3.8274     1.09176     2.73560
   23          O          -0.568453        6.5685     1.84590     4.72255
   24          C          -0.409797        4.4098     1.08037     3.32943
   25          C           0.195885        3.8041     1.08472     2.71940
   26          O          -0.571671        6.5717     1.84903     4.72264
   27          C          -0.392007        4.3920     1.07340     3.31861
   28          C           0.653552        3.3464     1.11771     2.22873
   29          O          -0.507885        6.5079     1.87666     4.63122
   30          O          -0.582200        6.5822     1.83909     4.74311
   31          C          -0.158045        4.1580     1.06982     3.08822
   32          H           0.141010        0.8590     0.85899
   33          H           0.141590        0.8584     0.85841
   34          H           0.143282        0.8567     0.85672
   35          H           0.142349        0.8577     0.85765
   36          H           0.156867        0.8431     0.84313
   37          H           0.156623        0.8434     0.84338
   38          H           0.147066        0.8529     0.85293
   39          H           0.155482        0.8445     0.84452
   40          H           0.149063        0.8509     0.85094
   41          H           0.153067        0.8469     0.84693
   42          H           0.171711        0.8283     0.82829
   43          H           0.151051        0.8489     0.84895
   44          H           0.167389        0.8326     0.83261
   45          H           0.148091        0.8519     0.85191
   46          H           0.141445        0.8586     0.85856
   47          H           0.148172        0.8518     0.85183
   48          H           0.144581        0.8554     0.85542
   49          H           0.144316        0.8557     0.85568
   50          H           0.149988        0.8500     0.85001
   51          H           0.149202        0.8508     0.85080
   52          H           0.139878        0.8601     0.86012
   53          H           0.133811        0.8662     0.86619
   54          H           0.144200        0.8558     0.85580
   55          H           0.142159        0.8578     0.85784
   56          H           0.152223        0.8478     0.84778
   57          H           0.151289        0.8487     0.84871
   58          H           0.166958        0.8330     0.83304
   59          H           0.146933        0.8531     0.85307
   60          H           0.139081        0.8609     0.86092
   61          H           0.144524        0.8555     0.85548
   62          H           0.174754        0.8252     0.82525
   63          H           0.311864        0.6881     0.68814
   64          H           0.146806        0.8532     0.85319
   65          H           0.167255        0.8327     0.83275
   66          H           0.133335        0.8667     0.86666
   67          H           0.314228        0.6858     0.68577
   68          H           0.217196        0.7828     0.78280
   69          H           0.216260        0.7837     0.78374
   70          H           0.355749        0.6443     0.64425
   71          H           0.156467        0.8435     0.84353
 DIPOLE           X         Y         Z       TOTAL
 POINT-CHG.    -2.557    -1.851    -4.983     5.899
 HYBRID         0.546    -0.146    -0.409     0.698
 SUM           -2.011    -1.996    -5.392     6.092


          ATOMIC ORBITAL ELECTRON POPULATIONS

     Atom    s        px        py        pz   
    1  C   1.05077   1.14563   1.09114   1.14308
    2  C   1.05984   0.99475   1.07118   1.13759
    3  C   1.06517   0.98341   0.94734   0.95967
    4  C   1.05808   1.12715   1.18727   1.08165
    5  C   1.05681   1.19546   1.06808   1.13400
    6  C   1.14405   0.71355   0.80744   0.75650
    7  O   1.87590   1.41566   1.84926   1.37978
    8  O   1.86409   1.67838   1.27029   1.63262
    9  C   1.10366   1.01300   0.78851   0.97027
   10  C   1.07109   1.07398   1.05395   1.12304
   11  C   1.05211   1.02053   1.00971   0.98919
   12  C   1.05544   1.07112   1.16994   1.15513
   13  C   1.09434   1.05217   1.04437   1.01232
   14  C   1.07085   0.98042   0.98873   0.96729
   15  C   1.08246   1.05566   1.02898   1.00762
   16  C   1.09635   0.99434   0.99243   1.06997
   17  C   1.05854   1.01198   1.00361   1.02829
   18  C   1.05434   1.14377   1.07621   1.16693
   19  C   1.06990   0.98846   1.06389   0.99219
   20  C   1.06235   1.03294   1.11173   1.08226
   21  C   1.06966   1.09453   1.09541   1.07778
   22  C   1.09176   0.89032   0.87868   0.96660
   23  O   1.84590   1.66804   1.58461   1.46990
   24  C   1.08037   1.15776   1.06685   1.10482
   25  C   1.08472   0.79795   0.96308   0.95837
   26  O   1.84903   1.36719   1.87941   1.47604
   27  C   1.07340   1.04127   1.17257   1.10477
   28  C   1.11771   0.80386   0.69800   0.72688
   29  O   1.87666   1.69871   1.50420   1.42832
   30  O   1.83909   1.47799   1.76758   1.49754
   31  C   1.06982   1.01342   1.05346   1.02135
   32  H   0.85899
   33  H   0.85841
   34  H   0.85672
   35  H   0.85765
   36  H   0.84313
   37  H   0.84338
   38  H   0.85293
   39  H   0.84452
   40  H   0.85094
   41  H   0.84693
   42  H   0.82829
   43  H   0.84895
   44  H   0.83261
   45  H   0.85191
   46  H   0.85856
   47  H   0.85183
   48  H   0.85542
   49  H   0.85568
   50  H   0.85001
   51  H   0.85080
   52  H   0.86012
   53  H   0.86619
   54  H   0.85580
   55  H   0.85784
   56  H   0.84778
   57  H   0.84871
   58  H   0.83304
   59  H   0.85307
   60  H   0.86092
   61  H   0.85548
   62  H   0.82525
   63  H   0.68814
   64  H   0.85319
   65  H   0.83275
   66  H   0.86666
   67  H   0.68577
   68  H   0.78280
   69  H   0.78374
   70  H   0.64425
   71  H   0.84353

 **********************
 *                    *
 * JOB ENDED NORMALLY *
 *                    *
 **********************



 TOTAL JOB TIME:            19.41 SECONDS

 == MOPAC DONE ==
