 *******************************************************************************
 **                                                                           **
 **                              MOPAC v23.0.3                                **
 **                                                                           **
 *******************************************************************************
 **          Digital Object Identifier (DOI): 10.5281/zenodo.6511958          **
 **    Visit the DOI location for information on how to cite this program.    **
 *******************************************************************************

                              PM7 CALCULATION RESULTS

 *******************************************************************************
 *  CALCULATION DONE:                                Fri Jul 25 19:48:58 2025  *
 *  PM7        - The PM7 Hamiltonian to be used
 *  XYZ        - CARTESIAN COORDINATE SYSTEM TO BE USED
 *  T=         - A TIME OF 172800.0 SECONDS REQUESTED
 *  DUMP=N     - RESTART FILE WRITTEN EVERY 7200.0 SECONDS REQUESTED
 *******************************************************************************
PM7 XYZ

 Lipophilicity_447 - geometry optimisation
   ATOM   CHEMICAL          X               Y               Z
  NUMBER   SYMBOL      (ANGSTROMS)     (ANGSTROMS)     (ANGSTROMS)

     1       C          5.91871400  *  -2.12658700  *  -1.90421700  *
     2       N          4.98331900  *  -1.13562400  *  -1.36582100  *
     3       C          3.57586800  *  -1.16377400  *  -1.68869500  *
     4       C          3.08127200  *  -1.91828100  *  -2.76502500  *
     5       C          1.72021100  *  -1.85671500  *  -3.05409000  *
     6       N          0.89585500  *  -1.09456100  *  -2.29058100  *
     7       C          1.37342000  *  -0.38962000  *  -1.23119200  *
     8       N          0.50216700  *   0.42000800  *  -0.42581400  *
     9       C         -0.93472500  *   0.35394900  *  -0.45744500  *
    10       C         -1.60900000  *  -0.85113400  *  -0.71875200  *
    11       C         -3.01062100  *  -0.89428900  *  -0.76113600  *
    12       C         -3.74310700  *   0.27213800  *  -0.48484300  *
    13       C         -3.08121400  *   1.46034300  *  -0.14946500  *
    14       C         -1.68095400  *   1.49970500  *  -0.15030100  *
    15       C         -3.84271000  *   2.67567300  *   0.18426700  *
    16       O         -3.94254300  *   3.57654200  *  -0.69090700  *
    17       N         -4.42957400  *   2.86955200  *   1.48926100  *
    18       C         -4.53012000  *   4.23357900  *   2.03087200  *
    19       C         -5.64378100  *   4.31371500  *   3.08091000  *
    20       O         -5.50548300  *   3.28873900  *   4.04743100  *
    21       C         -5.68988500  *   2.03183300  *   3.42843200  *
    22       C         -4.56182400  *   1.74968400  *   2.43232900  *
    23       N         -3.68375000  *  -2.13470800  *  -1.04681700  *
    24       C         -3.34011200  *  -2.91442300  *  -2.23949300  *
    25       C         -3.45520500  *  -4.40548200  *  -1.91545700  *
    26       O         -4.72712100  *  -4.70632800  *  -1.37381700  *
    27       C         -4.89077300  *  -4.05114600  *  -0.12896600  *
    28       C         -4.88283400  *  -2.52923000  *  -0.30414700  *
    29       N          2.70234100  *  -0.41763000  *  -0.95520700  *
    30       C          5.48825600  *  -0.09371600  *  -0.51500700  *
    31       C          5.28768800  *  -0.17971700  *   0.87034900  *
    32       C          5.75508100  *   0.83084900  *   1.72371200  *
    33       C          5.52203200  *   0.73009900  *   3.20818900  *
    34       O          6.17946400  *  -0.39254200  *   3.73137200  *
    35       C          6.43727000  *   1.92982400  *   1.18051900  *
    36       C          6.63787700  *   2.02468100  *  -0.19903100  *
    37       C          6.15520700  *   1.02527700  *  -1.05960800  *
    38       C          6.36916600  *   1.15013000  *  -2.54367600  *
    39       H          5.53538800  *  -3.15288400  *  -1.70708400  *
    40       H          6.03971900  *  -1.97427400  *  -2.99886000  *
    41       H          6.91688400  *  -2.03166500  *  -1.42318100  *
    42       H          3.73046800  *  -2.52323800  *  -3.38569700  *
    43       H          1.31545800  *  -2.41380900  *  -3.88820100  *
    44       H          0.94804000  *   1.14451500  *   0.18307100  *
    45       H         -1.05133200  *  -1.76851700  *  -0.84883800  *
    46       H         -4.82646600  *   0.25181400  *  -0.51922400  *
    47       H         -1.16935200  *   2.42329100  *   0.09286700  *
    48       H         -4.75675700  *   4.96540800  *   1.22464700  *
    49       H         -3.55949500  *   4.51317800  *   2.49704300  *
    50       H         -6.64460100  *   4.27510700  *   2.59093200  *
    51       H         -5.58072800  *   5.29572300  *   3.59484700  *
    52       H         -6.68109900  *   1.97280500  *   2.92072800  *
    53       H         -5.68659100  *   1.24238300  *   4.20951500  *
    54       H         -3.60545000  *   1.61404700  *   2.97970200  *
    55       H         -4.81122800  *   0.80807000  *   1.90043700  *
    56       H         -4.04423600  *  -2.65234100  *  -3.05848600  *
    57       H         -2.30931400  *  -2.69501700  *  -2.59036300  *
    58       H         -3.32260200  *  -4.98328900  *  -2.85267000  *
    59       H         -2.63983700  *  -4.71655100  *  -1.22380600  *
    60       H         -5.86549500  *  -4.35588600  *   0.30515400  *
    61       H         -4.09998600  *  -4.36175700  *   0.59072500  *
    62       H         -4.89655500  *  -2.04970500  *   0.70040700  *
    63       H         -5.78648100  *  -2.20952200  *  -0.86764700  *
    64       H          4.76204900  *  -1.03417100  *   1.28094900  *
    65       H          4.43207000  *   0.62581300  *   3.39839700  *
    66       H          5.86060600  *   1.65152100  *   3.73540900  *
    67       H          7.15106200  *  -0.18311800  *   3.72081300  *
    68       H          6.80828500  *   2.71802600  *   1.82469300  *
    69       H          7.16551100  *   2.88430300  *  -0.59630000  *
    70       H          5.41967400  *   0.96012400  *  -3.08301700  *
    71       H          6.72486600  *   2.16553100  *  -2.82039600  *
    72       H          7.12765300  *   0.41327100  *  -2.87470000  *



          CARTESIAN COORDINATES 

    NO.       ATOM           X           Y           Z

     1         C          5.9187     -2.1266     -1.9042
     2         N          4.9833     -1.1356     -1.3658
     3         C          3.5759     -1.1638     -1.6887
     4         C          3.0813     -1.9183     -2.7650
     5         C          1.7202     -1.8567     -3.0541
     6         N          0.8959     -1.0946     -2.2906
     7         C          1.3734     -0.3896     -1.2312
     8         N          0.5022      0.4200     -0.4258
     9         C         -0.9347      0.3539     -0.4574
    10         C         -1.6090     -0.8511     -0.7188
    11         C         -3.0106     -0.8943     -0.7611
    12         C         -3.7431      0.2721     -0.4848
    13         C         -3.0812      1.4603     -0.1495
    14         C         -1.6810      1.4997     -0.1503
    15         C         -3.8427      2.6757      0.1843
    16         O         -3.9425      3.5765     -0.6909
    17         N         -4.4296      2.8696      1.4893
    18         C         -4.5301      4.2336      2.0309
    19         C         -5.6438      4.3137      3.0809
    20         O         -5.5055      3.2887      4.0474
    21         C         -5.6899      2.0318      3.4284
    22         C         -4.5618      1.7497      2.4323
    23         N         -3.6837     -2.1347     -1.0468
    24         C         -3.3401     -2.9144     -2.2395
    25         C         -3.4552     -4.4055     -1.9155
    26         O         -4.7271     -4.7063     -1.3738
    27         C         -4.8908     -4.0511     -0.1290
    28         C         -4.8828     -2.5292     -0.3041
    29         N          2.7023     -0.4176     -0.9552
    30         C          5.4883     -0.0937     -0.5150
    31         C          5.2877     -0.1797      0.8703
    32         C          5.7551      0.8308      1.7237
    33         C          5.5220      0.7301      3.2082
    34         O          6.1795     -0.3925      3.7314
    35         C          6.4373      1.9298      1.1805
    36         C          6.6379      2.0247     -0.1990
    37         C          6.1552      1.0253     -1.0596
    38         C          6.3692      1.1501     -2.5437
    39         H          5.5354     -3.1529     -1.7071
    40         H          6.0397     -1.9743     -2.9989
    41         H          6.9169     -2.0317     -1.4232
    42         H          3.7305     -2.5232     -3.3857
    43         H          1.3155     -2.4138     -3.8882
    44         H          0.9480      1.1445      0.1831
    45         H         -1.0513     -1.7685     -0.8488
    46         H         -4.8265      0.2518     -0.5192
    47         H         -1.1694      2.4233      0.0929
    48         H         -4.7568      4.9654      1.2246
    49         H         -3.5595      4.5132      2.4970
    50         H         -6.6446      4.2751      2.5909
    51         H         -5.5807      5.2957      3.5948
    52         H         -6.6811      1.9728      2.9207
    53         H         -5.6866      1.2424      4.2095
    54         H         -3.6055      1.6140      2.9797
    55         H         -4.8112      0.8081      1.9004
    56         H         -4.0442     -2.6523     -3.0585
    57         H         -2.3093     -2.6950     -2.5904
    58         H         -3.3226     -4.9833     -2.8527
    59         H         -2.6398     -4.7166     -1.2238
    60         H         -5.8655     -4.3559      0.3052
    61         H         -4.1000     -4.3618      0.5907
    62         H         -4.8966     -2.0497      0.7004
    63         H         -5.7865     -2.2095     -0.8676
    64         H          4.7620     -1.0342      1.2809
    65         H          4.4321      0.6258      3.3984
    66         H          5.8606      1.6515      3.7354
    67         H          7.1511     -0.1831      3.7208
    68         H          6.8083      2.7180      1.8247
    69         H          7.1655      2.8843     -0.5963
    70         H          5.4197      0.9601     -3.0830
    71         H          6.7249      2.1655     -2.8204
    72         H          7.1277      0.4133     -2.8747

 General Reference for PM7:
 "Optimization of Parameters for Semiempirical Methods VI: More Modifications to the 
 NDDO Approximations and Re-optimization of Parameters", J. J. P. Stewart, J. Mol. Mod., 1:32, 19 (2013)
 https://link.springer.com/article/10.1007/s00894-012-1667-x

           Empirical Formula: C28 H34 N6 O4  =    72 atoms



      MOLECULAR POINT GROUP   :   C1  


      RHF CALCULATION, NO. OF DOUBLY OCCUPIED LEVELS = 100


          Geometry optimization using L-BFGS
 CYCLE:     1 TIME:   0.133 TIME LEFT:  2.00D  GRAD.:   207.242 HEAT: -40.79152
 CYCLE:     2 TIME:   0.070 TIME LEFT:  2.00D  GRAD.:   203.170 HEAT: -41.21671
 CYCLE:     3 TIME:   0.078 TIME LEFT:  2.00D  GRAD.:    74.307 HEAT: -54.06712
 CYCLE:     4 TIME:   0.078 TIME LEFT:  2.00D  GRAD.:   203.459 HEAT: -41.22076
 CYCLE:     5 TIME:   0.078 TIME LEFT:  2.00D  GRAD.:    74.506 HEAT: -54.06452
 CYCLE:     6 TIME:   0.070 TIME LEFT:  2.00D  GRAD.:    56.950 HEAT: -55.89638
 CYCLE:     7 TIME:   0.070 TIME LEFT:  2.00D  GRAD.:    46.814 HEAT: -60.06462
 CYCLE:     8 TIME:   0.078 TIME LEFT:  2.00D  GRAD.:   105.007 HEAT: -60.19493
 CYCLE:     9 TIME:   0.070 TIME LEFT:  2.00D  GRAD.:    37.981 HEAT: -61.91133
 CYCLE:    10 TIME:   0.062 TIME LEFT:  2.00D  GRAD.:    25.035 HEAT: -62.54442
 CYCLE:    11 TIME:   0.078 TIME LEFT:  2.00D  GRAD.:    35.054 HEAT: -63.40225
 CYCLE:    12 TIME:   0.070 TIME LEFT:  2.00D  GRAD.:    33.479 HEAT: -64.32824
 CYCLE:    13 TIME:   0.078 TIME LEFT:  2.00D  GRAD.:    41.436 HEAT: -65.62385
 CYCLE:    14 TIME:   0.078 TIME LEFT:  2.00D  GRAD.:    75.588 HEAT: -65.41531
 CYCLE:    15 TIME:   0.070 TIME LEFT:  2.00D  GRAD.:    18.635 HEAT: -66.68337
 CYCLE:    16 TIME:   0.070 TIME LEFT:  2.00D  GRAD.:    15.021 HEAT: -66.91265
 CYCLE:    17 TIME:   0.070 TIME LEFT:  2.00D  GRAD.:    19.869 HEAT: -67.39252
 CYCLE:    18 TIME:   0.070 TIME LEFT:  2.00D  GRAD.:    38.503 HEAT: -67.61740
 CYCLE:    19 TIME:   0.078 TIME LEFT:  2.00D  GRAD.:    16.387 HEAT: -67.97285
 CYCLE:    20 TIME:   0.070 TIME LEFT:  2.00D  GRAD.:    11.272 HEAT: -68.16453
 CYCLE:    21 TIME:   0.062 TIME LEFT:  2.00D  GRAD.:    13.195 HEAT: -68.32033
 CYCLE:    22 TIME:   0.078 TIME LEFT:  2.00D  GRAD.:    29.785 HEAT: -68.42261
 CYCLE:    23 TIME:   0.062 TIME LEFT:  2.00D  GRAD.:    11.135 HEAT: -68.60601
 CYCLE:    24 TIME:   0.070 TIME LEFT:  2.00D  GRAD.:     9.093 HEAT: -68.69213
 CYCLE:    25 TIME:   0.070 TIME LEFT:  2.00D  GRAD.:    12.232 HEAT: -68.79607
 CYCLE:    26 TIME:   0.070 TIME LEFT:  2.00D  GRAD.:    19.512 HEAT: -68.92145
 CYCLE:    27 TIME:   0.070 TIME LEFT:  2.00D  GRAD.:    11.070 HEAT: -69.05413
 CYCLE:    28 TIME:   0.070 TIME LEFT:  2.00D  GRAD.:     8.843 HEAT: -69.15357
 CYCLE:    29 TIME:   0.070 TIME LEFT:  2.00D  GRAD.:     9.586 HEAT: -69.25505
 CYCLE:    30 TIME:   0.078 TIME LEFT:  2.00D  GRAD.:    23.876 HEAT: -69.28278
 CYCLE:    31 TIME:   0.062 TIME LEFT:  2.00D  GRAD.:     8.716 HEAT: -69.39795
 CYCLE:    32 TIME:   0.070 TIME LEFT:  2.00D  GRAD.:     6.696 HEAT: -69.45244
 CYCLE:    33 TIME:   0.062 TIME LEFT:  2.00D  GRAD.:     8.513 HEAT: -69.51525
 CYCLE:    34 TIME:   0.078 TIME LEFT:  2.00D  GRAD.:    10.834 HEAT: -69.62217
 CYCLE:    35 TIME:   0.070 TIME LEFT:  2.00D  GRAD.:    18.211 HEAT: -69.69705
 CYCLE:    36 TIME:   0.070 TIME LEFT:  2.00D  GRAD.:     9.061 HEAT: -69.82540
 CYCLE:    37 TIME:   0.062 TIME LEFT:  2.00D  GRAD.:    10.023 HEAT: -69.91145
 CYCLE:    38 TIME:   0.078 TIME LEFT:  2.00D  GRAD.:    13.298 HEAT: -70.03598
 CYCLE:    39 TIME:   0.070 TIME LEFT:  2.00D  GRAD.:    29.652 HEAT: -70.05172
 CYCLE:    40 TIME:   0.070 TIME LEFT:  2.00D  GRAD.:     9.238 HEAT: -70.19832
 CYCLE:    41 TIME:   0.062 TIME LEFT:  2.00D  GRAD.:     7.055 HEAT: -70.24517
 CYCLE:    42 TIME:   0.070 TIME LEFT:  2.00D  GRAD.:     9.549 HEAT: -70.30744
 CYCLE:    43 TIME:   0.070 TIME LEFT:  2.00D  GRAD.:    11.747 HEAT: -70.41120
 CYCLE:    44 TIME:   0.078 TIME LEFT:  2.00D  GRAD.:    25.432 HEAT: -70.45632
 CYCLE:    45 TIME:   0.062 TIME LEFT:  2.00D  GRAD.:     8.410 HEAT: -70.59852
 CYCLE:    46 TIME:   0.070 TIME LEFT:  2.00D  GRAD.:     8.491 HEAT: -70.65537
 CYCLE:    47 TIME:   0.070 TIME LEFT:  2.00D  GRAD.:    11.032 HEAT: -70.75681
 CYCLE:    48 TIME:   0.070 TIME LEFT:  2.00D  GRAD.:    21.188 HEAT: -70.88530
 CYCLE:    49 TIME:   0.070 TIME LEFT:  2.00D  GRAD.:    14.069 HEAT: -71.03905
 CYCLE:    50 TIME:   0.078 TIME LEFT:  2.00D  GRAD.:    10.599 HEAT: -71.18039
 CYCLE:    51 TIME:   0.070 TIME LEFT:  2.00D  GRAD.:    12.929 HEAT: -71.28472
 CYCLE:    52 TIME:   0.070 TIME LEFT:  2.00D  GRAD.:    10.970 HEAT: -71.37005
 CYCLE:    53 TIME:   0.070 TIME LEFT:  2.00D  GRAD.:    11.247 HEAT: -71.50258
 CYCLE:    54 TIME:   0.070 TIME LEFT:  2.00D  GRAD.:    21.413 HEAT: -71.58970
 CYCLE:    55 TIME:   0.070 TIME LEFT:  2.00D  GRAD.:    10.624 HEAT: -71.71813
 CYCLE:    56 TIME:   0.070 TIME LEFT:  2.00D  GRAD.:     9.739 HEAT: -71.82267
 CYCLE:    57 TIME:   0.070 TIME LEFT:  2.00D  GRAD.:    10.940 HEAT: -71.91917
 CYCLE:    58 TIME:   0.078 TIME LEFT:  2.00D  GRAD.:    18.033 HEAT: -71.97913
 CYCLE:    59 TIME:   0.070 TIME LEFT:  2.00D  GRAD.:     8.237 HEAT: -72.06624
 CYCLE:    60 TIME:   0.070 TIME LEFT:  2.00D  GRAD.:     7.894 HEAT: -72.13042
 CYCLE:    61 TIME:   0.070 TIME LEFT:  2.00D  GRAD.:     9.474 HEAT: -72.18503
 CYCLE:    62 TIME:   0.070 TIME LEFT:  2.00D  GRAD.:    19.743 HEAT: -72.23654
 CYCLE:    63 TIME:   0.078 TIME LEFT:  2.00D  GRAD.:     8.283 HEAT: -72.32877
 CYCLE:    64 TIME:   0.062 TIME LEFT:  2.00D  GRAD.:     8.314 HEAT: -72.38744
 CYCLE:    65 TIME:   0.078 TIME LEFT:  2.00D  GRAD.:    11.010 HEAT: -72.46489
 CYCLE:    66 TIME:   0.070 TIME LEFT:  2.00D  GRAD.:    15.870 HEAT: -72.57310
 CYCLE:    67 TIME:   0.078 TIME LEFT:  2.00D  GRAD.:    15.558 HEAT: -72.68749
 CYCLE:    68 TIME:   0.078 TIME LEFT:  2.00D  GRAD.:    24.172 HEAT: -72.81171
 CYCLE:    69 TIME:   0.062 TIME LEFT:  2.00D  GRAD.:    10.402 HEAT: -72.99960
 CYCLE:    70 TIME:   0.078 TIME LEFT:  2.00D  GRAD.:    12.926 HEAT: -73.10210
 CYCLE:    71 TIME:   0.078 TIME LEFT:  2.00D  GRAD.:    15.217 HEAT: -73.23628
 CYCLE:    72 TIME:   0.078 TIME LEFT:  2.00D  GRAD.:    11.847 HEAT: -73.43777
 CYCLE:    73 TIME:   0.078 TIME LEFT:  2.00D  GRAD.:    18.100 HEAT: -73.59310
 CYCLE:    74 TIME:   0.062 TIME LEFT:  2.00D  GRAD.:    12.161 HEAT: -73.70656
 CYCLE:    75 TIME:   0.070 TIME LEFT:  2.00D  GRAD.:    14.264 HEAT: -73.81330
 CYCLE:    76 TIME:   0.078 TIME LEFT:  2.00D  GRAD.:    13.036 HEAT: -73.95027
 CYCLE:    77 TIME:   0.078 TIME LEFT:  2.00D  GRAD.:    19.955 HEAT: -73.99742
 CYCLE:    78 TIME:   0.070 TIME LEFT:  2.00D  GRAD.:     8.254 HEAT: -74.09633
 CYCLE:    79 TIME:   0.070 TIME LEFT:  2.00D  GRAD.:     8.565 HEAT: -74.14388
 CYCLE:    80 TIME:   0.070 TIME LEFT:  2.00D  GRAD.:    10.946 HEAT: -74.21227
 CYCLE:    81 TIME:   0.078 TIME LEFT:  2.00D  GRAD.:    13.262 HEAT: -74.29753
 CYCLE:    82 TIME:   0.070 TIME LEFT:  2.00D  GRAD.:    20.334 HEAT: -74.31253
 CYCLE:    83 TIME:   0.070 TIME LEFT:  2.00D  GRAD.:     7.021 HEAT: -74.42064
 CYCLE:    84 TIME:   0.070 TIME LEFT:  2.00D  GRAD.:     6.205 HEAT: -74.45997
 CYCLE:    85 TIME:   0.070 TIME LEFT:  2.00D  GRAD.:    10.485 HEAT: -74.53123
 CYCLE:    86 TIME:   0.070 TIME LEFT:  2.00D  GRAD.:    14.256 HEAT: -74.59538
 CYCLE:    87 TIME:   0.070 TIME LEFT:  2.00D  GRAD.:     7.665 HEAT: -74.66971
 CYCLE:    88 TIME:   0.070 TIME LEFT:  2.00D  GRAD.:     7.125 HEAT: -74.73196
 CYCLE:    89 TIME:   0.070 TIME LEFT:  2.00D  GRAD.:    10.739 HEAT: -74.77584
 CYCLE:    90 TIME:   0.070 TIME LEFT:  2.00D  GRAD.:     7.915 HEAT: -74.83646
 CYCLE:    91 TIME:   0.070 TIME LEFT:  2.00D  GRAD.:     8.173 HEAT: -74.87422
 CYCLE:    92 TIME:   0.070 TIME LEFT:  2.00D  GRAD.:     5.404 HEAT: -74.90111
 CYCLE:    93 TIME:   0.273 TIME LEFT:  2.00D  GRAD.:     6.122 HEAT: -74.92944
 CYCLE:    94 TIME:   0.070 TIME LEFT:  2.00D  GRAD.:     7.412 HEAT: -74.97206
 CYCLE:    95 TIME:   0.070 TIME LEFT:  2.00D  GRAD.:    15.482 HEAT: -75.01278
 CYCLE:    96 TIME:   0.070 TIME LEFT:  2.00D  GRAD.:     8.057 HEAT: -75.08152
 CYCLE:    97 TIME:   0.070 TIME LEFT:  2.00D  GRAD.:     6.823 HEAT: -75.11952
 CYCLE:    98 TIME:   0.062 TIME LEFT:  2.00D  GRAD.:     6.876 HEAT: -75.16584
 CYCLE:    99 TIME:   0.078 TIME LEFT:  2.00D  GRAD.:     9.120 HEAT: -75.22049
 CYCLE:   100 TIME:   0.070 TIME LEFT:  2.00D  GRAD.:    11.423 HEAT: -75.26690
 CYCLE:   101 TIME:   0.062 TIME LEFT:  2.00D  GRAD.:     6.818 HEAT: -75.32921
 CYCLE:   102 TIME:   0.070 TIME LEFT:  2.00D  GRAD.:     5.889 HEAT: -75.37978
 CYCLE:   103 TIME:   0.078 TIME LEFT:  2.00D  GRAD.:     9.711 HEAT: -75.43002
 CYCLE:   104 TIME:   0.070 TIME LEFT:  2.00D  GRAD.:     8.761 HEAT: -75.48182
 CYCLE:   105 TIME:   0.078 TIME LEFT:  2.00D  GRAD.:     8.087 HEAT: -75.55093
 CYCLE:   106 TIME:   0.078 TIME LEFT:  2.00D  GRAD.:    10.568 HEAT: -75.61886
 CYCLE:   107 TIME:   0.070 TIME LEFT:  2.00D  GRAD.:     8.099 HEAT: -75.67927
 CYCLE:   108 TIME:   0.070 TIME LEFT:  2.00D  GRAD.:     6.314 HEAT: -75.72947
 CYCLE:   109 TIME:   0.070 TIME LEFT:  2.00D  GRAD.:     7.758 HEAT: -75.77965
 CYCLE:   110 TIME:   0.070 TIME LEFT:  2.00D  GRAD.:    11.711 HEAT: -75.80707
 CYCLE:   111 TIME:   0.062 TIME LEFT:  2.00D  GRAD.:     6.218 HEAT: -75.84545
 CYCLE:   112 TIME:   0.070 TIME LEFT:  2.00D  GRAD.:     4.631 HEAT: -75.87683
 CYCLE:   113 TIME:   0.062 TIME LEFT:  2.00D  GRAD.:     4.724 HEAT: -75.90356
 CYCLE:   114 TIME:   0.078 TIME LEFT:  2.00D  GRAD.:     8.672 HEAT: -75.92863
 CYCLE:   115 TIME:   0.070 TIME LEFT:  2.00D  GRAD.:    27.292 HEAT: -75.85226
 CYCLE:   116 TIME:   0.078 TIME LEFT:  2.00D  GRAD.:     5.292 HEAT: -75.98165
 CYCLE:   117 TIME:   0.062 TIME LEFT:  2.00D  GRAD.:     4.075 HEAT: -75.99552
 CYCLE:   118 TIME:   0.078 TIME LEFT:  2.00D  GRAD.:     6.861 HEAT: -76.02887
 CYCLE:   119 TIME:   0.070 TIME LEFT:  2.00D  GRAD.:     7.451 HEAT: -76.06007
 CYCLE:   120 TIME:   0.070 TIME LEFT:  2.00D  GRAD.:     5.384 HEAT: -76.08962
 CYCLE:   121 TIME:   0.070 TIME LEFT:  2.00D  GRAD.:     5.388 HEAT: -76.11907
 CYCLE:   122 TIME:   0.070 TIME LEFT:  2.00D  GRAD.:     9.444 HEAT: -76.14072
 CYCLE:   123 TIME:   0.070 TIME LEFT:  2.00D  GRAD.:     4.691 HEAT: -76.16888
 CYCLE:   124 TIME:   0.070 TIME LEFT:  2.00D  GRAD.:     3.293 HEAT: -76.18366
 CYCLE:   125 TIME:   0.062 TIME LEFT:  2.00D  GRAD.:     3.709 HEAT: -76.19777
 CYCLE:   126 TIME:   0.078 TIME LEFT:  2.00D  GRAD.:     6.373 HEAT: -76.21172
 CYCLE:   127 TIME:   0.062 TIME LEFT:  2.00D  GRAD.:     4.363 HEAT: -76.22677
 CYCLE:   128 TIME:   0.070 TIME LEFT:  2.00D  GRAD.:     3.360 HEAT: -76.23927
 CYCLE:   129 TIME:   0.070 TIME LEFT:  2.00D  GRAD.:     3.907 HEAT: -76.25215
 CYCLE:   130 TIME:   0.070 TIME LEFT:  2.00D  GRAD.:     5.379 HEAT: -76.26168
 CYCLE:   131 TIME:   0.062 TIME LEFT:  2.00D  GRAD.:     3.289 HEAT: -76.27187
 CYCLE:   132 TIME:   0.070 TIME LEFT:  2.00D  GRAD.:     2.699 HEAT: -76.28246
 CYCLE:   133 TIME:   0.070 TIME LEFT:  2.00D  GRAD.:     3.761 HEAT: -76.29083
 CYCLE:   134 TIME:   0.062 TIME LEFT:  2.00D  GRAD.:     3.749 HEAT: -76.29942
 CYCLE:   135 TIME:   0.070 TIME LEFT:  2.00D  GRAD.:     3.568 HEAT: -76.30546
 CYCLE:   136 TIME:   0.062 TIME LEFT:  2.00D  GRAD.:     2.511 HEAT: -76.31066
 CYCLE:   137 TIME:   0.070 TIME LEFT:  2.00D  GRAD.:     2.523 HEAT: -76.31740
 CYCLE:   138 TIME:   0.070 TIME LEFT:  2.00D  GRAD.:     3.982 HEAT: -76.32412
 CYCLE:   139 TIME:   0.070 TIME LEFT:  2.00D  GRAD.:     2.841 HEAT: -76.33109
 CYCLE:   140 TIME:   0.062 TIME LEFT:  2.00D  GRAD.:     2.307 HEAT: -76.33676
 CYCLE:   141 TIME:   0.070 TIME LEFT:  2.00D  GRAD.:     3.025 HEAT: -76.34295
 CYCLE:   142 TIME:   0.062 TIME LEFT:  2.00D  GRAD.:     3.061 HEAT: -76.35016
 CYCLE:   143 TIME:   0.086 TIME LEFT:  2.00D  GRAD.:     4.199 HEAT: -76.36025
 CYCLE:   144 TIME:   0.078 TIME LEFT:  2.00D  GRAD.:     3.770 HEAT: -76.36929
 CYCLE:   145 TIME:   0.062 TIME LEFT:  2.00D  GRAD.:     2.947 HEAT: -76.37742
 CYCLE:   146 TIME:   0.070 TIME LEFT:  2.00D  GRAD.:     3.674 HEAT: -76.39176
 CYCLE:   147 TIME:   0.062 TIME LEFT:  2.00D  GRAD.:     5.152 HEAT: -76.39839
 CYCLE:   148 TIME:   0.070 TIME LEFT:  2.00D  GRAD.:     3.047 HEAT: -76.40632
 CYCLE:   149 TIME:   0.070 TIME LEFT:  2.00D  GRAD.:     2.258 HEAT: -76.41442
 CYCLE:   150 TIME:   0.070 TIME LEFT:  2.00D  GRAD.:     3.156 HEAT: -76.42066
 CYCLE:   151 TIME:   0.062 TIME LEFT:  2.00D  GRAD.:     2.942 HEAT: -76.42915
 CYCLE:   152 TIME:   0.078 TIME LEFT:  2.00D  GRAD.:     3.725 HEAT: -76.43615
 CYCLE:   153 TIME:   0.062 TIME LEFT:  2.00D  GRAD.:     3.503 HEAT: -76.44197
 CYCLE:   154 TIME:   0.070 TIME LEFT:  2.00D  GRAD.:     2.436 HEAT: -76.44681
 CYCLE:   155 TIME:   0.070 TIME LEFT:  2.00D  GRAD.:     2.330 HEAT: -76.45283
 CYCLE:   156 TIME:   0.070 TIME LEFT:  2.00D  GRAD.:     3.693 HEAT: -76.45818
 CYCLE:   157 TIME:   0.070 TIME LEFT:  2.00D  GRAD.:     2.755 HEAT: -76.46402
 CYCLE:   158 TIME:   0.070 TIME LEFT:  2.00D  GRAD.:     2.252 HEAT: -76.46777
 CYCLE:   159 TIME:   0.078 TIME LEFT:  2.00D  GRAD.:     8.558 HEAT: -76.46095
 CYCLE:   160 TIME:   0.062 TIME LEFT:  2.00D  GRAD.:     6.357 HEAT: -76.46611
 CYCLE:   161 TIME:   0.070 TIME LEFT:  2.00D  GRAD.:     1.137 HEAT: -76.47652
 CYCLE:   162 TIME:   0.078 TIME LEFT:  2.00D  GRAD.:     1.786 HEAT: -76.47897
 CYCLE:   163 TIME:   0.070 TIME LEFT:  2.00D  GRAD.:     1.589 HEAT: -76.48165
 CYCLE:   164 TIME:   0.078 TIME LEFT:  2.00D  GRAD.:     5.060 HEAT: -76.48216
 CYCLE:   165 TIME:   0.070 TIME LEFT:  2.00D  GRAD.:     1.636 HEAT: -76.48827
 CYCLE:   166 TIME:   0.078 TIME LEFT:  2.00D  GRAD.:     1.328 HEAT: -76.48770
 CYCLE:   167 TIME:   0.078 TIME LEFT:  2.00D  GRAD.:     9.910 HEAT: -76.47466
 CYCLE:   168 TIME:   0.070 TIME LEFT:  2.00D  GRAD.:     1.462 HEAT: -76.49312
 CYCLE:   169 TIME:   0.070 TIME LEFT:  2.00D  GRAD.:     0.961 HEAT: -76.49409

 -------------------------------------------------------------------------------
 PM7 XYZ

 Lipophilicity_447 - geometry optimisation


     HERBERTS TEST WAS SATISFIED IN BFGS                      
     SCF FIELD WAS ACHIEVED                                   


                              PM7 CALCULATION
                                                       MOPAC v23.0.3 Linux
                                                       Fri Jul 25 19:49:10 2025




          FINAL HEAT OF FORMATION =        -76.49409 KCAL/MOL =    -320.05127 KJ/MOL


          COSMO AREA              =        519.94 SQUARE ANGSTROMS
          COSMO VOLUME            =        622.38 CUBIC ANGSTROMS

          GRADIENT NORM           =          0.96086          =       0.11324 PER ATOM
          IONIZATION POTENTIAL    =          8.427576 EV
          HOMO LUMO ENERGIES (EV) =         -8.428 -0.295
          NO. OF FILLED LEVELS    =        100
          MOLECULAR WEIGHT        =        518.6144         POINT GROUP:  C1  

          MOLECULAR DIMENSIONS (Angstroms)

            Atom       Atom       Distance
            H    51    H    41    15.42006
            H    58    H    66    12.62052
            H    71    H    61     7.26872


          SCF CALCULATIONS        =        170

          WALL-CLOCK TIME         =     12.328 SECONDS
          COMPUTATION TIME        =          4 MINUTES AND 5.770 SECONDS




   ATOM   CHEMICAL          X               Y               Z
  NUMBER   SYMBOL      (ANGSTROMS)     (ANGSTROMS)     (ANGSTROMS)

     1       C          5.99998024  *  -1.80427280  *  -2.02710431  *
     2       N          4.95652467  *  -1.03288803  *  -1.35094454  *
     3       C          3.63236127  *  -1.23515985  *  -1.62978374  *
     4       C          3.16868427  *  -2.26118200  *  -2.49974983  *
     5       C          1.79126425  *  -2.39034169  *  -2.64224084  *
     6       N          0.90347150  *  -1.60478946  *  -2.00278440  *
     7       C          1.42097411  *  -0.62789929  *  -1.19389710  *
     8       N          0.61005800  *   0.25568618  *  -0.50760995  *
     9       C         -0.79830104  *   0.23502961  *  -0.46202252  *
    10       C         -1.54699268  *  -0.91813035  *  -0.67486331  *
    11       C         -2.95316647  *  -0.87651922  *  -0.59952268  *
    12       C         -3.59072875  *   0.33365596  *  -0.27912646  *
    13       C         -2.81476323  *   1.46315572  *  -0.03242315  *
    14       C         -1.43331896  *   1.44875915  *  -0.11833273  *
    15       C         -3.52244462  *   2.73503805  *   0.30459014  *
    16       O         -3.96260921  *   3.48261732  *  -0.54278366  *
    17       N         -3.58543506  *   3.08852173  *   1.65405916  *
    18       C         -4.52536148  *   4.15460305  *   2.03457173  *
    19       C         -5.87735272  *   3.54490047  *   2.45092180  *
    20       O         -5.69629157  *   2.57212600  *   3.46571146  *
    21       C         -4.83819751  *   1.51499026  *   3.07900837  *
    22       C         -3.45072721  *   2.07127845  *   2.70482687  *
    23       N         -3.65127903  *  -2.09216617  *  -0.73444721  *
    24       C         -3.30284054  *  -2.90332633  *  -1.92317511  *
    25       C         -3.82870250  *  -4.33038836  *  -1.69258442  *
    26       O         -5.22857343  *  -4.30323297  *  -1.47959101  *
    27       C         -5.58117756  *  -3.53127735  *  -0.34792160  *
    28       C         -5.11143729  *  -2.07162962  *  -0.51787658  *
    29       N          2.75509551  *  -0.40428777  *  -0.99298296  *
    30       C          5.37266881  *   0.04549679  *  -0.50471872  *
    31       C          5.22711891  *  -0.11541258  *   0.87612159  *
    32       C          5.61964041  *   0.91064790  *   1.73180179  *
    33       C          5.43574640  *   0.73732739  *   3.20961876  *
    34       O          5.75634258  *  -0.57765394  *   3.62017432  *
    35       C          6.15580745  *   2.08694138  *   1.20995043  *
    36       C          6.28796836  *   2.24411257  *  -0.16693737  *
    37       C          5.89362048  *   1.23296314  *  -1.04580586  *
    38       C          6.01193817  *   1.43143197  *  -2.51661763  *
    39       H          5.89258994  *  -2.88042876  *  -1.79066927  *
    40       H          5.95310190  *  -1.67493155  *  -3.12353625  *
    41       H          6.99937302  *  -1.48230156  *  -1.68282904  *
    42       H          3.84890334  *  -2.91143546  *  -3.02332858  *
    43       H          1.34667690  *  -3.15458568  *  -3.29486234  *
    44       H          1.09083277  *   1.02099935  *  -0.02705157  *
    45       H         -1.04814417  *  -1.86692915  *  -0.88597759  *
    46       H         -4.67161788  *   0.41215835  *  -0.25223011  *
    47       H         -0.85792585  *   2.35423290  *   0.05239782  *
    48       H         -4.65633712  *   4.86946845  *   1.18918389  *
    49       H         -4.07744608  *   4.72447213  *   2.87875969  *
    50       H         -6.40544819  *   3.09228003  *   1.59391111  *
    51       H         -6.53289857  *   4.28492696  *   2.94262253  *
    52       H         -5.29365994  *   0.94712518  *   2.24978588  *
    53       H         -4.80318899  *   0.88432369  *   3.98448931  *
    54       H         -2.98311058  *   2.55680273  *   3.59306515  *
    55       H         -2.76276380  *   1.25744409  *   2.38953648  *
    56       H         -3.74797877  *  -2.47419948  *  -2.84828126  *
    57       H         -2.19933545  *  -2.92049392  *  -2.06933475  *
    58       H         -3.72719794  *  -4.96002136  *  -2.59363055  *
    59       H         -3.32993630  *  -4.81529304  *  -0.83514923  *
    60       H         -6.68213407  *  -3.60854287  *  -0.32857382  *
    61       H         -5.15589383  *  -3.98995305  *   0.56219230  *
    62       H         -5.34235378  *  -1.50342452  *   0.40951522  *
    63       H         -5.65533493  *  -1.59128871  *  -1.36021753  *
    64       H          4.78545521  *  -1.03036339  *   1.27895313  *
    65       H          4.36634211  *   0.83062813  *   3.49881790  *
    66       H          6.03729609  *   1.44602125  *   3.80807400  *
    67       H          6.63744499  *  -0.83668471  *   3.28351130  *
    68       H          6.46367643  *   2.89121032  *   1.87538620  *
    69       H          6.69248267  *   3.17316641  *  -0.56578340  *
    70       H          5.08960847  *   1.12627277  *  -3.03793347  *
    71       H          6.19294576  *   2.48093963  *  -2.78743156  *
    72       H          6.83645407  *   0.83969078  *  -2.93888521  *

                             CARTESIAN COORDINATES

   1    C        5.999980236    -1.804272797    -2.027104313
   2    N        4.956524672    -1.032888034    -1.350944541
   3    C        3.632361275    -1.235159852    -1.629783738
   4    C        3.168684270    -2.261181997    -2.499749827
   5    C        1.791264246    -2.390341688    -2.642240844
   6    N        0.903471501    -1.604789461    -2.002784400
   7    C        1.420974111    -0.627899287    -1.193897102
   8    N        0.610058005     0.255686184    -0.507609950
   9    C       -0.798301042     0.235029613    -0.462022516
  10    C       -1.546992681    -0.918130352    -0.674863313
  11    C       -2.953166467    -0.876519220    -0.599522684
  12    C       -3.590728747     0.333655957    -0.279126462
  13    C       -2.814763231     1.463155723    -0.032423147
  14    C       -1.433318964     1.448759146    -0.118332731
  15    C       -3.522444617     2.735038047     0.304590139
  16    O       -3.962609207     3.482617323    -0.542783658
  17    N       -3.585435058     3.088521727     1.654059163
  18    C       -4.525361480     4.154603050     2.034571732
  19    C       -5.877352718     3.544900465     2.450921800
  20    O       -5.696291572     2.572125997     3.465711461
  21    C       -4.838197506     1.514990257     3.079008374
  22    C       -3.450727209     2.071278449     2.704826869
  23    N       -3.651279029    -2.092166171    -0.734447211
  24    C       -3.302840538    -2.903326331    -1.923175107
  25    C       -3.828702503    -4.330388362    -1.692584416
  26    O       -5.228573428    -4.303232973    -1.479591008
  27    C       -5.581177565    -3.531277349    -0.347921597
  28    C       -5.111437288    -2.071629624    -0.517876582
  29    N        2.755095512    -0.404287769    -0.992982959
  30    C        5.372668811     0.045496786    -0.504718723
  31    C        5.227118913    -0.115412579     0.876121587
  32    C        5.619640406     0.910647898     1.731801791
  33    C        5.435746400     0.737327389     3.209618762
  34    O        5.756342581    -0.577653936     3.620174317
  35    C        6.155807452     2.086941384     1.209950432
  36    C        6.287968362     2.244112568    -0.166937373
  37    C        5.893620483     1.232963142    -1.045805856
  38    C        6.011938169     1.431431972    -2.516617633
  39    H        5.892589940    -2.880428760    -1.790669269
  40    H        5.953101901    -1.674931546    -3.123536252
  41    H        6.999373021    -1.482301564    -1.682829041
  42    H        3.848903341    -2.911435461    -3.023328584
  43    H        1.346676900    -3.154585676    -3.294862342
  44    H        1.090832775     1.020999348    -0.027051571
  45    H       -1.048144169    -1.866929147    -0.885977586
  46    H       -4.671617882     0.412158347    -0.252230112
  47    H       -0.857925848     2.354232900     0.052397822
  48    H       -4.656337115     4.869468453     1.189183891
  49    H       -4.077446082     4.724472131     2.878759685
  50    H       -6.405448193     3.092280027     1.593911112
  51    H       -6.532898574     4.284926956     2.942622531
  52    H       -5.293659944     0.947125183     2.249785881
  53    H       -4.803188991     0.884323692     3.984489308
  54    H       -2.983110575     2.556802731     3.593065146
  55    H       -2.762763798     1.257444095     2.389536477
  56    H       -3.747978772    -2.474199479    -2.848281263
  57    H       -2.199335453    -2.920493920    -2.069334752
  58    H       -3.727197944    -4.960021359    -2.593630548
  59    H       -3.329936296    -4.815293038    -0.835149226
  60    H       -6.682134066    -3.608542867    -0.328573817
  61    H       -5.155893834    -3.989953053     0.562192305
  62    H       -5.342353783    -1.503424525     0.409515223
  63    H       -5.655334933    -1.591288710    -1.360217528
  64    H        4.785455207    -1.030363393     1.278953133
  65    H        4.366342107     0.830628128     3.498817904
  66    H        6.037296093     1.446021245     3.808074002
  67    H        6.637444995    -0.836684707     3.283511295
  68    H        6.463676433     2.891210321     1.875386197
  69    H        6.692482673     3.173166410    -0.565783400
  70    H        5.089608467     1.126272771    -3.037933470
  71    H        6.192945756     2.480939631    -2.787431558
  72    H        6.836454071     0.839690785    -2.938885209


           Empirical Formula: C28 H34 N6 O4  =    72 atoms



      MOLECULAR POINT GROUP   :   C1  


                  EIGENVALUES  
 -38.15458 -37.30089 -36.46417 -36.12122 -35.95553 -33.65632 -30.91501 -30.59452
 -30.22320 -29.67662 -29.57399 -29.55231 -27.56347 -27.18244 -27.05921 -26.83970
 -26.20198 -26.12787 -25.60089 -25.27053 -25.12096 -24.95266 -24.53733 -23.39826
 -23.10629 -22.44228 -22.34177 -22.13262 -21.97523 -21.32713 -21.02666 -20.52852
 -20.26414 -19.90145 -19.17674 -18.54050 -18.35786 -18.04062 -17.41973 -17.01048
 -16.89392 -16.84164 -16.60245 -16.46241 -16.35464 -16.29267 -16.21678 -16.17597
 -16.08773 -16.03584 -15.75279 -15.65555 -15.56490 -15.45151 -15.36987 -15.27160
 -15.18686 -14.99650 -14.80526 -14.67806 -14.67718 -14.52316 -14.38232 -14.31272
 -14.11318 -13.96758 -13.76323 -13.74144 -13.46830 -13.44440 -13.34415 -13.17915
 -13.01877 -12.88926 -12.79378 -12.68342 -12.57114 -12.46441 -12.39520 -12.34774
 -12.26087 -12.10095 -11.92862 -11.77332 -11.74590 -11.68841 -11.52159 -10.85162
 -10.83273 -10.62992 -10.43855 -10.19571 -10.11170  -9.98577  -9.92816  -9.55971
  -9.14248  -8.98945  -8.67053  -8.42758  -0.29497  -0.11800   0.03022   0.09647
   0.19708   0.54676   1.11445   1.19362   1.63571   1.90951   1.98548   2.18945
   2.27608   2.33631   2.52501   2.60923   2.90001   2.98540   3.28608   3.32026
   3.57210   3.65125   3.66322   3.71793   3.77010   3.96150   3.97673   4.01461
   4.11609   4.12375   4.15604   4.32999   4.40813   4.51300   4.53682   4.55908
   4.65834   4.70662   4.81250   4.82712   4.84622   4.90712   4.92651   4.97647
   5.00808   5.05504   5.11768   5.16731   5.23195   5.29470   5.31849   5.34389
   5.39126   5.39722   5.42803   5.46364   5.49616   5.52970   5.54785   5.57546
   5.59660   5.63147   5.65366   5.66454   5.69211   5.72737   5.78064   5.79590
   5.83932   5.86557   5.88484   5.88843   5.91664   5.98719   5.99412   6.02252
   6.04568   6.12570   6.16049   6.21601   6.23819   6.27237   6.30183   6.45983
   6.61534   6.79160


              NET ATOMIC CHARGES AND DIPOLE CONTRIBUTIONS

  ATOM NO.   TYPE          CHARGE      No. of ELECS.   s-Pop       p-Pop       
    1          C          -0.216814        4.2168     1.06089     3.15592
    2          N          -0.400404        5.4004     1.52886     3.87154
    3          C           0.483986        3.5160     1.04746     2.46856
    4          C          -0.503633        4.5036     1.06503     3.43860
    5          C           0.198381        3.8016     1.09688     2.70474
    6          N          -0.551721        5.5517     1.76123     3.79049
    7          C           0.564308        3.4357     1.04563     2.39006
    8          N          -0.469329        5.4693     1.52215     3.94718
    9          C           0.289301        3.7107     1.05227     2.65843
   10          C          -0.300916        4.3009     1.07643     3.22449
   11          C           0.270295        3.7297     1.06227     2.66743
   12          C          -0.321413        4.3214     1.06889     3.25252
   13          C           0.005694        3.9943     1.07309     2.92121
   14          C          -0.288803        4.2888     1.07017     3.21863
   15          C           0.554030        3.4460     1.08987     2.35610
   16          O          -0.499894        6.4999     1.88107     4.61882
   17          N          -0.469967        5.4700     1.60896     3.86101
   18          C          -0.120904        4.1209     1.07353     3.04737
   19          C          -0.077567        4.0776     1.09445     2.98312
   20          O          -0.381300        6.3813     1.88129     4.50001
   21          C          -0.075703        4.0757     1.09331     2.98239
   22          C          -0.124104        4.1241     1.07342     3.05068
   23          N          -0.414966        5.4150     1.62138     3.79358
   24          C          -0.130165        4.1302     1.07571     3.05446
   25          C          -0.051869        4.0519     1.09188     2.95999
   26          O          -0.386795        6.3868     1.88074     4.50606
   27          C          -0.051565        4.0516     1.09184     2.95973
   28          C          -0.136453        4.1365     1.07430     3.06216
   29          N          -0.627739        5.6277     1.76562     3.86212
   30          C           0.147126        3.8529     1.05413     2.79875
   31          C          -0.136575        4.1366     1.09054     3.04603
   32          C          -0.071579        4.0716     1.07343     2.99815
   33          C          -0.005465        4.0055     1.08057     2.92489
   34          O          -0.535417        6.5354     1.85144     4.68398
   35          C          -0.153525        4.1535     1.08258     3.07095
   36          C          -0.168021        4.1680     1.08189     3.08613
   37          C           0.015774        3.9842     1.07004     2.91419
   38          C          -0.444040        4.4440     1.04773     3.39630
   39          H           0.155167        0.8448     0.84483
   40          H           0.147504        0.8525     0.85250
   41          H           0.158466        0.8415     0.84153
   42          H           0.180508        0.8195     0.81949
   43          H           0.170020        0.8300     0.82998
   44          H           0.339285        0.6607     0.66071
   45          H           0.204067        0.7959     0.79593
   46          H           0.163562        0.8364     0.83644
   47          H           0.175243        0.8248     0.82476
   48          H           0.174344        0.8257     0.82566
   49          H           0.151019        0.8490     0.84898
   50          H           0.132167        0.8678     0.86783
   51          H           0.144635        0.8554     0.85536
   52          H           0.126895        0.8731     0.87311
   53          H           0.145288        0.8547     0.85471
   54          H           0.156586        0.8434     0.84341
   55          H           0.162504        0.8375     0.83750
   56          H           0.139532        0.8605     0.86047
   57          H           0.166323        0.8337     0.83368
   58          H           0.139016        0.8610     0.86098
   59          H           0.131991        0.8680     0.86801
   60          H           0.138962        0.8610     0.86104
   61          H           0.130223        0.8698     0.86978
   62          H           0.147954        0.8520     0.85205
   63          H           0.138799        0.8612     0.86120
   64          H           0.184326        0.8157     0.81567
   65          H           0.158667        0.8413     0.84133
   66          H           0.121337        0.8787     0.87866
   67          H           0.311751        0.6882     0.68825
   68          H           0.151876        0.8481     0.84812
   69          H           0.155437        0.8446     0.84456
   70          H           0.169917        0.8301     0.83008
   71          H           0.158569        0.8414     0.84143
   72          H           0.155808        0.8442     0.84419
 DIPOLE           X         Y         Z       TOTAL
 POINT-CHG.     5.662    -1.675     0.311     5.913
 HYBRID         0.313     0.208    -0.780     0.866
 SUM            5.975    -1.467    -0.469     6.171


          ATOMIC ORBITAL ELECTRON POPULATIONS

     Atom    s        px        py        pz   
    1  C   1.06089   0.98876   1.07381   1.09335
    2  N   1.52886   1.08163   1.34143   1.44848
    3  C   1.04746   0.79017   0.84661   0.83178
    4  C   1.06503   1.06031   1.16426   1.21403
    5  C   1.09688   0.91331   0.91162   0.87981
    6  N   1.76123   1.38241   1.17952   1.22855
    7  C   1.04563   0.78621   0.80592   0.79793
    8  N   1.52215   1.11036   1.32963   1.50718
    9  C   1.05227   0.77642   0.96457   0.91743
   10  C   1.07643   0.99462   1.08390   1.14598
   11  C   1.06227   0.93356   0.84317   0.89070
   12  C   1.06889   1.09211   0.98707   1.17334
   13  C   1.07309   0.98262   0.97410   0.96449
   14  C   1.07017   1.01038   1.05639   1.15186
   15  C   1.08987   0.75401   0.82640   0.77568
   16  O   1.88107   1.52384   1.54463   1.55035
   17  N   1.60896   1.51518   1.23227   1.11355
   18  C   1.07353   0.94473   0.96317   1.13948
   19  C   1.09445   1.02076   0.96834   0.99401
   20  O   1.88129   1.68639   1.40246   1.41115
   21  C   1.09331   0.93790   0.92229   1.12221
   22  C   1.07342   1.04695   1.00969   0.99404
   23  N   1.62138   1.14634   1.23758   1.40967
   24  C   1.07571   1.13503   0.97655   0.94288
   25  C   1.09188   0.82724   1.00980   1.12295
   26  O   1.88074   1.27348   1.72415   1.50842
   27  C   1.09184   1.08579   0.93633   0.93761
   28  C   1.07430   0.86669   1.05265   1.14282
   29  N   1.76562   1.09430   1.37524   1.39258
   30  C   1.05413   1.00568   0.87865   0.91442
   31  C   1.09054   0.99471   1.07068   0.98064
   32  C   1.07343   1.01300   0.98929   0.99586
   33  C   1.08057   1.12039   0.83857   0.96593
   34  O   1.85144   1.49525   1.38565   1.80309
   35  C   1.08258   1.00882   1.03884   1.02329
   36  C   1.08189   1.03232   1.05912   0.99469
   37  C   1.07004   0.97820   0.96301   0.97298
   38  C   1.04773   1.18246   1.18303   1.03082
   39  H   0.84483
   40  H   0.85250
   41  H   0.84153
   42  H   0.81949
   43  H   0.82998
   44  H   0.66071
   45  H   0.79593
   46  H   0.83644
   47  H   0.82476
   48  H   0.82566
   49  H   0.84898
   50  H   0.86783
   51  H   0.85536
   52  H   0.87311
   53  H   0.85471
   54  H   0.84341
   55  H   0.83750
   56  H   0.86047
   57  H   0.83368
   58  H   0.86098
   59  H   0.86801
   60  H   0.86104
   61  H   0.86978
   62  H   0.85205
   63  H   0.86120
   64  H   0.81567
   65  H   0.84133
   66  H   0.87866
   67  H   0.68825
   68  H   0.84812
   69  H   0.84456
   70  H   0.83008
   71  H   0.84143
   72  H   0.84419

 **********************
 *                    *
 * JOB ENDED NORMALLY *
 *                    *
 **********************



 TOTAL JOB TIME:            12.33 SECONDS

 == MOPAC DONE ==
