 *******************************************************************************
 **                                                                           **
 **                              MOPAC v23.0.3                                **
 **                                                                           **
 *******************************************************************************
 **          Digital Object Identifier (DOI): 10.5281/zenodo.6511958          **
 **    Visit the DOI location for information on how to cite this program.    **
 *******************************************************************************

                              PM7 CALCULATION RESULTS

 *******************************************************************************
 *  CALCULATION DONE:                                Fri Jul 25 16:01:11 2025  *
 *  PM7        - The PM7 Hamiltonian to be used
 *  XYZ        - CARTESIAN COORDINATE SYSTEM TO BE USED
 *  T=         - A TIME OF 172800.0 SECONDS REQUESTED
 *  DUMP=N     - RESTART FILE WRITTEN EVERY 7200.0 SECONDS REQUESTED
 *******************************************************************************
PM7 XYZ

 Lipophilicity_1003 - geometry optimisation
   ATOM   CHEMICAL          X               Y               Z
  NUMBER   SYMBOL      (ANGSTROMS)     (ANGSTROMS)     (ANGSTROMS)

     1       C          0.63635900  *   3.04685500  *   0.52221100  *
     2       C          1.38124900  *   1.73405800  *   0.24148000  *
     3       C          2.85007800  *   2.04280600  *  -0.11815900  *
     4       N          3.50557300  *   0.85912000  *  -0.68877500  *
     5       C          2.80671600  *   0.03030500  *  -1.68183200  *
     6       C          1.44487300  *   0.62326300  *  -2.05035700  *
     7       N          0.70794100  *   0.96640900  *  -0.82737200  *
     8       C         -0.65278800  *   0.51743200  *  -0.65669800  *
     9       N         -1.43479800  *   0.26916700  *  -1.74277100  *
    10       C         -2.72647500  *  -0.12727900  *  -1.60482800  *
    11       C         -3.28336400  *  -0.27592600  *  -0.33479300  *
    12       O         -4.62954300  *  -0.64989100  *  -0.22044300  *
    13       C         -5.34590200  *  -0.68748800  *   1.00980200  *
    14       C         -6.80310800  *  -0.95996400  *   0.73499500  *
    15       C         -7.36511400  *  -2.19172000  *   1.11040500  *
    16       C         -8.71728100  *  -2.44129700  *   0.86394300  *
    17       N         -9.48534100  *  -1.49825100  *   0.25839100  *
    18       C         -8.97332300  *  -0.29826200  *  -0.12615900  *
    19       C         -7.62255800  *  -0.00192500  *   0.09834000  *
    20       C         -7.10131600  *   1.27055000  *  -0.33877400  *
    21       N         -6.68163800  *   2.28996400  *  -0.69140600  *
    22       C         -2.46023900  *  -0.02920800  *   0.77487100  *
    23       N         -1.17272300  *   0.35962900  *   0.59093800  *
    24       C          4.88676200  *   0.58214400  *  -0.39496600  *
    25       N          5.67388300  *   1.39327500  *   0.33985300  *
    26       O          6.83142000  *   0.80761200  *   0.35388100  *
    27       C          6.76768200  *  -0.30573900  *  -0.33243500  *
    28       N          5.54003800  *  -0.50868100  *  -0.84824800  *
    29       C          7.92616400  *  -1.22458200  *  -0.55435700  *
    30       C          8.61919700  *  -1.68553300  *   0.71932800  *
    31       C          7.71440200  *  -2.64192300  *  -0.04212200  *
    32       H          1.17376700  *   3.63032700  *   1.29856100  *
    33       H          0.56289900  *   3.65725600  *  -0.40253100  *
    34       H         -0.38755000  *   2.84950300  *   0.89939100  *
    35       H          1.38365600  *   1.12086500  *   1.16934600  *
    36       H          3.37454100  *   2.38116300  *   0.80287600  *
    37       H          2.90117500  *   2.86814200  *  -0.86103000  *
    38       H          3.41975300  *  -0.05094600  *  -2.60590000  *
    39       H          2.66241400  *  -0.99038700  *  -1.26407400  *
    40       H          1.58711700  *   1.54214300  *  -2.66085900  *
    41       H          0.89347700  *  -0.12070900  *  -2.66796700  *
    42       H         -3.32680400  *  -0.31167300  *  -2.48595100  *
    43       H         -4.91132700  *  -1.47105700  *   1.66968000  *
    44       H         -5.25248000  *   0.28988600  *   1.53072300  *
    45       H         -6.76523300  *  -2.95383000  *   1.59320100  *
    46       H         -9.15745600  *  -3.38642600  *   1.15525800  *
    47       H         -9.62175900  *   0.42110500  *  -0.61051600  *
    48       H         -2.83221100  *  -0.13986200  *   1.78283800  *
    49       H          8.56774000  *  -1.11766300  *  -1.45433700  *
    50       H          8.18641800  *  -1.32022200  *   1.67543600  *
    51       H          9.70152700  *  -1.90171300  *   0.59840200  *
    52       H          8.25863900  *  -3.41989000  *  -0.61308600  *
    53       H          6.74487100  *  -2.84093000  *   0.46761700  *



          CARTESIAN COORDINATES 

    NO.       ATOM           X           Y           Z

     1         C          0.6364      3.0469      0.5222
     2         C          1.3812      1.7341      0.2415
     3         C          2.8501      2.0428     -0.1182
     4         N          3.5056      0.8591     -0.6888
     5         C          2.8067      0.0303     -1.6818
     6         C          1.4449      0.6233     -2.0504
     7         N          0.7079      0.9664     -0.8274
     8         C         -0.6528      0.5174     -0.6567
     9         N         -1.4348      0.2692     -1.7428
    10         C         -2.7265     -0.1273     -1.6048
    11         C         -3.2834     -0.2759     -0.3348
    12         O         -4.6295     -0.6499     -0.2204
    13         C         -5.3459     -0.6875      1.0098
    14         C         -6.8031     -0.9600      0.7350
    15         C         -7.3651     -2.1917      1.1104
    16         C         -8.7173     -2.4413      0.8639
    17         N         -9.4853     -1.4983      0.2584
    18         C         -8.9733     -0.2983     -0.1262
    19         C         -7.6226     -0.0019      0.0983
    20         C         -7.1013      1.2706     -0.3388
    21         N         -6.6816      2.2900     -0.6914
    22         C         -2.4602     -0.0292      0.7749
    23         N         -1.1727      0.3596      0.5909
    24         C          4.8868      0.5821     -0.3950
    25         N          5.6739      1.3933      0.3399
    26         O          6.8314      0.8076      0.3539
    27         C          6.7677     -0.3057     -0.3324
    28         N          5.5400     -0.5087     -0.8482
    29         C          7.9262     -1.2246     -0.5544
    30         C          8.6192     -1.6855      0.7193
    31         C          7.7144     -2.6419     -0.0421
    32         H          1.1738      3.6303      1.2986
    33         H          0.5629      3.6573     -0.4025
    34         H         -0.3876      2.8495      0.8994
    35         H          1.3837      1.1209      1.1693
    36         H          3.3745      2.3812      0.8029
    37         H          2.9012      2.8681     -0.8610
    38         H          3.4198     -0.0509     -2.6059
    39         H          2.6624     -0.9904     -1.2641
    40         H          1.5871      1.5421     -2.6609
    41         H          0.8935     -0.1207     -2.6680
    42         H         -3.3268     -0.3117     -2.4860
    43         H         -4.9113     -1.4711      1.6697
    44         H         -5.2525      0.2899      1.5307
    45         H         -6.7652     -2.9538      1.5932
    46         H         -9.1575     -3.3864      1.1553
    47         H         -9.6218      0.4211     -0.6105
    48         H         -2.8322     -0.1399      1.7828
    49         H          8.5677     -1.1177     -1.4543
    50         H          8.1864     -1.3202      1.6754
    51         H          9.7015     -1.9017      0.5984
    52         H          8.2586     -3.4199     -0.6131
    53         H          6.7449     -2.8409      0.4676

 General Reference for PM7:
 "Optimization of Parameters for Semiempirical Methods VI: More Modifications to the 
 NDDO Approximations and Re-optimization of Parameters", J. J. P. Stewart, J. Mol. Mod., 1:32, 19 (2013)
 https://link.springer.com/article/10.1007/s00894-012-1667-x

           Empirical Formula: C21 H22 N8 O2  =    53 atoms



      MOLECULAR POINT GROUP   :   C1  


      RHF CALCULATION, NO. OF DOUBLY OCCUPIED LEVELS = 79


          Geometry optimization using L-BFGS
 CYCLE:     1 TIME:   0.070 TIME LEFT:  2.00D  GRAD.:   327.537 HEAT:  167.7669
 CYCLE:     2 TIME:   0.039 TIME LEFT:  2.00D  GRAD.:   319.482 HEAT:  166.7070
 CYCLE:     3 TIME:   0.055 TIME LEFT:  2.00D  GRAD.:    84.188 HEAT:  142.7868
 CYCLE:     4 TIME:   0.051 TIME LEFT:  2.00D  GRAD.:   319.434 HEAT:  166.7066
 CYCLE:     5 TIME:   0.039 TIME LEFT:  2.00D  GRAD.:   274.590 HEAT:  160.3398
 CYCLE:     6 TIME:   0.055 TIME LEFT:  2.00D  GRAD.:   123.468 HEAT:  140.6403
 CYCLE:     7 TIME:   0.043 TIME LEFT:  2.00D  GRAD.:   169.068 HEAT:  139.9442
 CYCLE:     8 TIME:   0.039 TIME LEFT:  2.00D  GRAD.:    56.070 HEAT:  138.0722
 CYCLE:     9 TIME:   0.039 TIME LEFT:  2.00D  GRAD.:    44.332 HEAT:  137.4014
 CYCLE:    10 TIME:   0.043 TIME LEFT:  2.00D  GRAD.:    60.677 HEAT:  135.6544
 CYCLE:    11 TIME:   0.043 TIME LEFT:  2.00D  GRAD.:    62.813 HEAT:  134.3713
 CYCLE:    12 TIME:   0.043 TIME LEFT:  2.00D  GRAD.:    60.035 HEAT:  133.1133
 CYCLE:    13 TIME:   0.043 TIME LEFT:  2.00D  GRAD.:    37.377 HEAT:  132.3059
 CYCLE:    14 TIME:   0.039 TIME LEFT:  2.00D  GRAD.:    27.640 HEAT:  131.9739
 CYCLE:    15 TIME:   0.043 TIME LEFT:  2.00D  GRAD.:    23.778 HEAT:  131.5322
 CYCLE:    16 TIME:   0.043 TIME LEFT:  2.00D  GRAD.:    25.015 HEAT:  131.1622
 CYCLE:    17 TIME:   0.043 TIME LEFT:  2.00D  GRAD.:    27.349 HEAT:  130.7835
 CYCLE:    18 TIME:   0.043 TIME LEFT:  2.00D  GRAD.:    20.274 HEAT:  130.4482
 CYCLE:    19 TIME:   0.043 TIME LEFT:  2.00D  GRAD.:    18.115 HEAT:  130.0612
 CYCLE:    20 TIME:   0.043 TIME LEFT:  2.00D  GRAD.:    24.256 HEAT:  129.7703
 CYCLE:    21 TIME:   0.047 TIME LEFT:  2.00D  GRAD.:    18.286 HEAT:  129.5098
 CYCLE:    22 TIME:   0.039 TIME LEFT:  2.00D  GRAD.:    12.986 HEAT:  129.3218
 CYCLE:    23 TIME:   0.043 TIME LEFT:  2.00D  GRAD.:    15.924 HEAT:  129.1565
 CYCLE:    24 TIME:   0.039 TIME LEFT:  2.00D  GRAD.:    26.124 HEAT:  129.0311
 CYCLE:    25 TIME:   0.039 TIME LEFT:  2.00D  GRAD.:    15.733 HEAT:  128.8675
 CYCLE:    26 TIME:   0.039 TIME LEFT:  2.00D  GRAD.:    12.739 HEAT:  128.7114
 CYCLE:    27 TIME:   0.043 TIME LEFT:  2.00D  GRAD.:    12.240 HEAT:  128.5659
 CYCLE:    28 TIME:   0.043 TIME LEFT:  2.00D  GRAD.:    17.155 HEAT:  128.3189
 CYCLE:    29 TIME:   0.043 TIME LEFT:  2.00D  GRAD.:    25.665 HEAT:  128.2229
 CYCLE:    30 TIME:   0.039 TIME LEFT:  2.00D  GRAD.:     9.116 HEAT:  128.0473
 CYCLE:    31 TIME:   0.039 TIME LEFT:  2.00D  GRAD.:     8.564 HEAT:  127.9780
 CYCLE:    32 TIME:   0.039 TIME LEFT:  2.00D  GRAD.:    10.620 HEAT:  127.8722
 CYCLE:    33 TIME:   0.043 TIME LEFT:  2.00D  GRAD.:    35.172 HEAT:  127.9112
 CYCLE:    34 TIME:   0.039 TIME LEFT:  2.00D  GRAD.:     9.729 HEAT:  127.7036
 CYCLE:    35 TIME:   0.039 TIME LEFT:  2.00D  GRAD.:     6.550 HEAT:  127.6524
 CYCLE:    36 TIME:   0.039 TIME LEFT:  2.00D  GRAD.:     8.297 HEAT:  127.5799
 CYCLE:    37 TIME:   0.043 TIME LEFT:  2.00D  GRAD.:    12.730 HEAT:  127.5042
 CYCLE:    38 TIME:   0.043 TIME LEFT:  2.00D  GRAD.:    22.061 HEAT:  127.4677
 CYCLE:    39 TIME:   0.043 TIME LEFT:  2.00D  GRAD.:     7.787 HEAT:  127.4021
 CYCLE:    40 TIME:   0.039 TIME LEFT:  2.00D  GRAD.:     7.177 HEAT:  127.3807
 CYCLE:    41 TIME:   0.039 TIME LEFT:  2.00D  GRAD.:     9.289 HEAT:  127.2933
 CYCLE:    42 TIME:   0.043 TIME LEFT:  2.00D  GRAD.:    20.361 HEAT:  127.2176
 CYCLE:    43 TIME:   0.039 TIME LEFT:  2.00D  GRAD.:     8.710 HEAT:  127.1301
 CYCLE:    44 TIME:   0.039 TIME LEFT:  2.00D  GRAD.:     7.649 HEAT:  127.0868
 CYCLE:    45 TIME:   0.043 TIME LEFT:  2.00D  GRAD.:     9.337 HEAT:  126.9990
 CYCLE:    46 TIME:   0.043 TIME LEFT:  2.00D  GRAD.:    15.348 HEAT:  126.9131
 CYCLE:    47 TIME:   0.043 TIME LEFT:  2.00D  GRAD.:    11.563 HEAT:  126.8171
 CYCLE:    48 TIME:   0.039 TIME LEFT:  2.00D  GRAD.:     7.988 HEAT:  126.7310
 CYCLE:    49 TIME:   0.039 TIME LEFT:  2.00D  GRAD.:     8.980 HEAT:  126.6563
 CYCLE:    50 TIME:   0.047 TIME LEFT:  2.00D  GRAD.:    13.237 HEAT:  126.5980
 CYCLE:    51 TIME:   0.039 TIME LEFT:  2.00D  GRAD.:     8.750 HEAT:  126.5366
 CYCLE:    52 TIME:   0.039 TIME LEFT:  2.00D  GRAD.:    12.800 HEAT:  126.4843
 CYCLE:    53 TIME:   0.047 TIME LEFT:  2.00D  GRAD.:    11.187 HEAT:  126.4670
 CYCLE:    54 TIME:   0.039 TIME LEFT:  2.00D  GRAD.:     5.566 HEAT:  126.4497
 CYCLE:    55 TIME:   0.043 TIME LEFT:  2.00D  GRAD.:     4.732 HEAT:  126.4314
 CYCLE:    56 TIME:   0.043 TIME LEFT:  2.00D  GRAD.:     5.699 HEAT:  126.4131
 CYCLE:    57 TIME:   0.039 TIME LEFT:  2.00D  GRAD.:     6.556 HEAT:  126.3774
 CYCLE:    58 TIME:   0.043 TIME LEFT:  2.00D  GRAD.:    15.688 HEAT:  126.3674
 CYCLE:    59 TIME:   0.039 TIME LEFT:  2.00D  GRAD.:     4.990 HEAT:  126.3064
 CYCLE:    60 TIME:   0.043 TIME LEFT:  2.00D  GRAD.:     4.660 HEAT:  126.2833
 CYCLE:    61 TIME:   0.039 TIME LEFT:  2.00D  GRAD.:     6.496 HEAT:  126.2352
 CYCLE:    62 TIME:   0.043 TIME LEFT:  2.00D  GRAD.:    16.485 HEAT:  126.2361
 CYCLE:    63 TIME:   0.039 TIME LEFT:  2.00D  GRAD.:     4.634 HEAT:  126.1809
 CYCLE:    64 TIME:   0.043 TIME LEFT:  2.00D  GRAD.:     4.365 HEAT:  126.1607
 CYCLE:    65 TIME:   0.043 TIME LEFT:  2.00D  GRAD.:     6.618 HEAT:  126.1081
 CYCLE:    66 TIME:   0.043 TIME LEFT:  2.00D  GRAD.:    26.572 HEAT:  126.1919
 CYCLE:    67 TIME:   0.039 TIME LEFT:  2.00D  GRAD.:     4.795 HEAT:  126.0730
 CYCLE:    68 TIME:   0.039 TIME LEFT:  2.00D  GRAD.:     4.292 HEAT:  126.0630
 CYCLE:    69 TIME:   0.039 TIME LEFT:  2.00D  GRAD.:     5.475 HEAT:  126.0466
 CYCLE:    70 TIME:   0.039 TIME LEFT:  2.00D  GRAD.:     4.659 HEAT:  126.0331
 CYCLE:    71 TIME:   0.043 TIME LEFT:  2.00D  GRAD.:     4.050 HEAT:  126.0192
 CYCLE:    72 TIME:   0.043 TIME LEFT:  2.00D  GRAD.:     6.934 HEAT:  125.9908
 CYCLE:    73 TIME:   0.039 TIME LEFT:  2.00D  GRAD.:     7.333 HEAT:  125.9713
 CYCLE:    74 TIME:   0.039 TIME LEFT:  2.00D  GRAD.:     3.947 HEAT:  125.9530
 CYCLE:    75 TIME:   0.039 TIME LEFT:  2.00D  GRAD.:     4.310 HEAT:  125.9382
 CYCLE:    76 TIME:   0.039 TIME LEFT:  2.00D  GRAD.:     4.192 HEAT:  125.9197
 CYCLE:    77 TIME:   0.043 TIME LEFT:  2.00D  GRAD.:     6.805 HEAT:  125.8945
 CYCLE:    78 TIME:   0.043 TIME LEFT:  2.00D  GRAD.:     5.727 HEAT:  125.8754
 CYCLE:    79 TIME:   0.043 TIME LEFT:  2.00D  GRAD.:     4.481 HEAT:  125.8560
 CYCLE:    80 TIME:   0.039 TIME LEFT:  2.00D  GRAD.:     4.381 HEAT:  125.8369
 CYCLE:    81 TIME:   0.043 TIME LEFT:  2.00D  GRAD.:     7.757 HEAT:  125.8066
 CYCLE:    82 TIME:   0.043 TIME LEFT:  2.00D  GRAD.:     6.386 HEAT:  125.7808
 CYCLE:    83 TIME:   0.043 TIME LEFT:  2.00D  GRAD.:    19.175 HEAT:  125.7767
 CYCLE:    84 TIME:   0.039 TIME LEFT:  2.00D  GRAD.:     6.170 HEAT:  125.7382
 CYCLE:    85 TIME:   0.039 TIME LEFT:  2.00D  GRAD.:     4.360 HEAT:  125.7249
 CYCLE:    86 TIME:   0.039 TIME LEFT:  2.00D  GRAD.:     4.935 HEAT:  125.7079
 CYCLE:    87 TIME:   0.043 TIME LEFT:  2.00D  GRAD.:     6.537 HEAT:  125.6830
 CYCLE:    88 TIME:   0.043 TIME LEFT:  2.00D  GRAD.:    15.816 HEAT:  125.6860
 CYCLE:    89 TIME:   0.039 TIME LEFT:  2.00D  GRAD.:     5.124 HEAT:  125.6360
 CYCLE:    90 TIME:   0.039 TIME LEFT:  2.00D  GRAD.:     3.485 HEAT:  125.6225
 CYCLE:    91 TIME:   0.039 TIME LEFT:  2.00D  GRAD.:     4.648 HEAT:  125.6055
 CYCLE:    92 TIME:   0.043 TIME LEFT:  2.00D  GRAD.:     6.729 HEAT:  125.5795
 CYCLE:    93 TIME:   0.043 TIME LEFT:  2.00D  GRAD.:     9.784 HEAT:  125.5590
 CYCLE:    94 TIME:   0.039 TIME LEFT:  2.00D  GRAD.:     5.173 HEAT:  125.5313
 CYCLE:    95 TIME:   0.043 TIME LEFT:  2.00D  GRAD.:     4.302 HEAT:  125.5116
 CYCLE:    96 TIME:   0.039 TIME LEFT:  2.00D  GRAD.:     5.589 HEAT:  125.4916
 CYCLE:    97 TIME:   0.051 TIME LEFT:  2.00D  GRAD.:     6.389 HEAT:  125.4733
 CYCLE:    98 TIME:   0.043 TIME LEFT:  2.00D  GRAD.:    26.794 HEAT:  125.4912
 CYCLE:    99 TIME:   0.043 TIME LEFT:  2.00D  GRAD.:    10.594 HEAT:  125.4446
 CYCLE:   100 TIME:   0.039 TIME LEFT:  2.00D  GRAD.:     4.801 HEAT:  125.4176
 CYCLE:   101 TIME:   0.039 TIME LEFT:  2.00D  GRAD.:     5.886 HEAT:  125.4021
 CYCLE:   102 TIME:   0.043 TIME LEFT:  2.00D  GRAD.:     7.764 HEAT:  125.3961
 CYCLE:   103 TIME:   0.043 TIME LEFT:  2.00D  GRAD.:    25.248 HEAT:  125.4292
 CYCLE:   104 TIME:   0.039 TIME LEFT:  2.00D  GRAD.:     6.290 HEAT:  125.3436
 CYCLE:   105 TIME:   0.043 TIME LEFT:  2.00D  GRAD.:     3.672 HEAT:  125.3306
 CYCLE:   106 TIME:   0.043 TIME LEFT:  2.00D  GRAD.:     4.595 HEAT:  125.3111
 CYCLE:   107 TIME:   0.043 TIME LEFT:  2.00D  GRAD.:     6.243 HEAT:  125.2897
 CYCLE:   108 TIME:   0.043 TIME LEFT:  2.00D  GRAD.:    15.925 HEAT:  125.2839
 CYCLE:   109 TIME:   0.039 TIME LEFT:  2.00D  GRAD.:     6.588 HEAT:  125.2310
 CYCLE:   110 TIME:   0.039 TIME LEFT:  2.00D  GRAD.:     4.182 HEAT:  125.2056
 CYCLE:   111 TIME:   0.039 TIME LEFT:  2.00D  GRAD.:     4.267 HEAT:  125.1843
 CYCLE:   112 TIME:   0.043 TIME LEFT:  2.00D  GRAD.:     7.273 HEAT:  125.1701
 CYCLE:   113 TIME:   0.043 TIME LEFT:  2.00D  GRAD.:    42.492 HEAT:  125.3784
 CYCLE:   114 TIME:   0.066 TIME LEFT:  2.00D  GRAD.:     6.870 HEAT:  125.1239
 CYCLE:   115 TIME:   0.039 TIME LEFT:  2.00D  GRAD.:     3.960 HEAT:  125.1143
 CYCLE:   116 TIME:   0.043 TIME LEFT:  2.00D  GRAD.:     3.490 HEAT:  125.0959
 CYCLE:   117 TIME:   0.043 TIME LEFT:  2.00D  GRAD.:     8.001 HEAT:  125.0944
 CYCLE:   118 TIME:   0.043 TIME LEFT:  2.00D  GRAD.:    37.333 HEAT:  125.2963
 CYCLE:   119 TIME:   0.043 TIME LEFT:  2.00D  GRAD.:     4.961 HEAT:  125.0602
 CYCLE:   120 TIME:   0.047 TIME LEFT:  2.00D  GRAD.:     5.217 HEAT:  125.0452
 CYCLE:   121 TIME:   0.043 TIME LEFT:  2.00D  GRAD.:     6.189 HEAT:  125.0247
 CYCLE:   122 TIME:   0.043 TIME LEFT:  2.00D  GRAD.:    37.551 HEAT:  125.1589
 CYCLE:   123 TIME:   0.047 TIME LEFT:  2.00D  GRAD.:     5.297 HEAT:  124.9656
 CYCLE:   124 TIME:   0.039 TIME LEFT:  2.00D  GRAD.:     4.264 HEAT:  124.9565
 CYCLE:   125 TIME:   0.043 TIME LEFT:  2.00D  GRAD.:     3.501 HEAT:  124.9251
 CYCLE:   126 TIME:   0.047 TIME LEFT:  2.00D  GRAD.:    11.795 HEAT:  124.9174
 CYCLE:   127 TIME:   0.039 TIME LEFT:  2.00D  GRAD.:     4.608 HEAT:  124.8856
 CYCLE:   128 TIME:   0.039 TIME LEFT:  2.00D  GRAD.:     3.109 HEAT:  124.8786
 CYCLE:   129 TIME:   0.043 TIME LEFT:  2.00D  GRAD.:     3.961 HEAT:  124.8693
 CYCLE:   130 TIME:   0.039 TIME LEFT:  2.00D  GRAD.:     3.752 HEAT:  124.8560
 CYCLE:   131 TIME:   0.043 TIME LEFT:  2.00D  GRAD.:     5.214 HEAT:  124.8514
 CYCLE:   132 TIME:   0.039 TIME LEFT:  2.00D  GRAD.:     3.285 HEAT:  124.8410
 CYCLE:   133 TIME:   0.039 TIME LEFT:  2.00D  GRAD.:     3.365 HEAT:  124.8312
 CYCLE:   134 TIME:   0.039 TIME LEFT:  2.00D  GRAD.:     4.352 HEAT:  124.8193
 CYCLE:   135 TIME:   0.043 TIME LEFT:  2.00D  GRAD.:     4.651 HEAT:  124.8043
 CYCLE:   136 TIME:   0.039 TIME LEFT:  2.00D  GRAD.:     5.703 HEAT:  124.7949
 CYCLE:   137 TIME:   0.043 TIME LEFT:  2.00D  GRAD.:     4.464 HEAT:  124.7841
 CYCLE:   138 TIME:   0.039 TIME LEFT:  2.00D  GRAD.:     5.094 HEAT:  124.7684
 CYCLE:   139 TIME:   0.039 TIME LEFT:  2.00D  GRAD.:     6.816 HEAT:  124.7567
 CYCLE:   140 TIME:   0.039 TIME LEFT:  2.00D  GRAD.:     4.567 HEAT:  124.7455
 CYCLE:   141 TIME:   0.047 TIME LEFT:  2.00D  GRAD.:     3.383 HEAT:  124.7279
 CYCLE:   142 TIME:   0.043 TIME LEFT:  2.00D  GRAD.:     3.638 HEAT:  124.7169
 CYCLE:   143 TIME:   0.043 TIME LEFT:  2.00D  GRAD.:     4.816 HEAT:  124.6985
 CYCLE:   144 TIME:   0.043 TIME LEFT:  2.00D  GRAD.:     6.037 HEAT:  124.6866
 CYCLE:   145 TIME:   0.039 TIME LEFT:  2.00D  GRAD.:     4.286 HEAT:  124.6756
 CYCLE:   146 TIME:   0.039 TIME LEFT:  2.00D  GRAD.:     3.446 HEAT:  124.6649
 CYCLE:   147 TIME:   0.039 TIME LEFT:  2.00D  GRAD.:     4.915 HEAT:  124.6559
 CYCLE:   148 TIME:   0.043 TIME LEFT:  2.00D  GRAD.:     4.212 HEAT:  124.6448
 CYCLE:   149 TIME:   0.039 TIME LEFT:  2.00D  GRAD.:     3.594 HEAT:  124.6383
 CYCLE:   150 TIME:   0.043 TIME LEFT:  2.00D  GRAD.:     4.621 HEAT:  124.6285
 CYCLE:   151 TIME:   0.039 TIME LEFT:  2.00D  GRAD.:     5.331 HEAT:  124.6177
 CYCLE:   152 TIME:   0.043 TIME LEFT:  2.00D  GRAD.:     3.186 HEAT:  124.6080
 CYCLE:   153 TIME:   0.039 TIME LEFT:  2.00D  GRAD.:     2.746 HEAT:  124.5985
 CYCLE:   154 TIME:   0.043 TIME LEFT:  2.00D  GRAD.:     3.854 HEAT:  124.5911
 CYCLE:   155 TIME:   0.047 TIME LEFT:  2.00D  GRAD.:     4.075 HEAT:  124.5816
 CYCLE:   156 TIME:   0.043 TIME LEFT:  2.00D  GRAD.:     4.915 HEAT:  124.5746
 CYCLE:   157 TIME:   0.039 TIME LEFT:  2.00D  GRAD.:     2.964 HEAT:  124.5661
 CYCLE:   158 TIME:   0.043 TIME LEFT:  2.00D  GRAD.:     2.686 HEAT:  124.5592
 CYCLE:   159 TIME:   0.039 TIME LEFT:  2.00D  GRAD.:     4.136 HEAT:  124.5523
 CYCLE:   160 TIME:   0.043 TIME LEFT:  2.00D  GRAD.:     3.759 HEAT:  124.5440
 CYCLE:   161 TIME:   0.051 TIME LEFT:  2.00D  GRAD.:     5.825 HEAT:  124.5404
 CYCLE:   162 TIME:   0.051 TIME LEFT:  2.00D  GRAD.:     5.488 HEAT:  124.5321
 CYCLE:   163 TIME:   0.039 TIME LEFT:  2.00D  GRAD.:     3.224 HEAT:  124.5255
 CYCLE:   164 TIME:   0.043 TIME LEFT:  2.00D  GRAD.:     1.722 HEAT:  124.5202
 CYCLE:   165 TIME:   0.039 TIME LEFT:  2.00D  GRAD.:     2.813 HEAT:  124.5146
 CYCLE:   166 TIME:   0.043 TIME LEFT:  2.00D  GRAD.:     3.133 HEAT:  124.5085
 CYCLE:   167 TIME:   0.043 TIME LEFT:  2.00D  GRAD.:     5.309 HEAT:  124.5034
 CYCLE:   168 TIME:   0.039 TIME LEFT:  2.00D  GRAD.:     2.763 HEAT:  124.4961
 CYCLE:   169 TIME:   0.043 TIME LEFT:  2.00D  GRAD.:     2.341 HEAT:  124.4894
 CYCLE:   170 TIME:   0.039 TIME LEFT:  2.00D  GRAD.:     2.913 HEAT:  124.4849
 CYCLE:   171 TIME:   0.043 TIME LEFT:  2.00D  GRAD.:     3.223 HEAT:  124.4779
 CYCLE:   172 TIME:   0.043 TIME LEFT:  2.00D  GRAD.:     6.212 HEAT:  124.4735
 CYCLE:   173 TIME:   0.039 TIME LEFT:  2.00D  GRAD.:     3.219 HEAT:  124.4639
 CYCLE:   174 TIME:   0.039 TIME LEFT:  2.00D  GRAD.:     2.353 HEAT:  124.4567
 CYCLE:   175 TIME:   0.043 TIME LEFT:  2.00D  GRAD.:     3.828 HEAT:  124.4518
 CYCLE:   176 TIME:   0.043 TIME LEFT:  2.00D  GRAD.:     4.335 HEAT:  124.4473
 CYCLE:   177 TIME:   0.043 TIME LEFT:  2.00D  GRAD.:     6.447 HEAT:  124.4406
 CYCLE:   178 TIME:   0.043 TIME LEFT:  2.00D  GRAD.:     3.583 HEAT:  124.4297
 CYCLE:   179 TIME:   0.055 TIME LEFT:  2.00D  GRAD.:     2.915 HEAT:  124.4239
 CYCLE:   180 TIME:   0.047 TIME LEFT:  2.00D  GRAD.:     2.885 HEAT:  124.4170
 CYCLE:   181 TIME:   0.039 TIME LEFT:  2.00D  GRAD.:     3.453 HEAT:  124.4089
 CYCLE:   182 TIME:   0.043 TIME LEFT:  2.00D  GRAD.:     5.768 HEAT:  124.4046
 CYCLE:   183 TIME:   0.039 TIME LEFT:  2.00D  GRAD.:     2.664 HEAT:  124.3965
 CYCLE:   184 TIME:   0.039 TIME LEFT:  2.00D  GRAD.:     2.245 HEAT:  124.3908
 CYCLE:   185 TIME:   0.039 TIME LEFT:  2.00D  GRAD.:     2.484 HEAT:  124.3849
 CYCLE:   186 TIME:   0.043 TIME LEFT:  2.00D  GRAD.:     5.259 HEAT:  124.3790
 CYCLE:   187 TIME:   0.039 TIME LEFT:  2.00D  GRAD.:     6.182 HEAT:  124.3756
 CYCLE:   188 TIME:   0.043 TIME LEFT:  2.00D  GRAD.:     2.651 HEAT:  124.3674
 CYCLE:   189 TIME:   0.043 TIME LEFT:  2.00D  GRAD.:     2.332 HEAT:  124.3642
 CYCLE:   190 TIME:   0.039 TIME LEFT:  2.00D  GRAD.:     2.346 HEAT:  124.3584
 CYCLE:   191 TIME:   0.047 TIME LEFT:  2.00D  GRAD.:     2.559 HEAT:  124.3499
 CYCLE:   192 TIME:   0.047 TIME LEFT:  2.00D  GRAD.:    38.638 HEAT:  124.5218
 CYCLE:   193 TIME:   0.043 TIME LEFT:  2.00D  GRAD.:     3.401 HEAT:  124.3398
 CYCLE:   194 TIME:   0.039 TIME LEFT:  2.00D  GRAD.:     2.782 HEAT:  124.3364
 CYCLE:   195 TIME:   0.047 TIME LEFT:  2.00D  GRAD.:     4.533 HEAT:  124.3317
 CYCLE:   196 TIME:   0.043 TIME LEFT:  2.00D  GRAD.:     4.444 HEAT:  124.3176
 CYCLE:   197 TIME:   0.039 TIME LEFT:  2.00D  GRAD.:    10.798 HEAT:  124.3238
 CYCLE:   198 TIME:   0.043 TIME LEFT:  2.00D  GRAD.:     2.643 HEAT:  124.3071
 CYCLE:   199 TIME:   0.043 TIME LEFT:  2.00D  GRAD.:     3.234 HEAT:  124.3020
 CYCLE:   200 TIME:   0.043 TIME LEFT:  2.00D  GRAD.:     3.695 HEAT:  124.2932
 CYCLE:   201 TIME:   0.121 TIME LEFT:  2.00D  GRAD.:     7.257 HEAT:  124.2834
 CYCLE:   202 TIME:   0.039 TIME LEFT:  2.00D  GRAD.:     4.698 HEAT:  124.2758
 CYCLE:   203 TIME:   0.039 TIME LEFT:  2.00D  GRAD.:     2.957 HEAT:  124.2688
 CYCLE:   204 TIME:   0.043 TIME LEFT:  2.00D  GRAD.:     4.518 HEAT:  124.2657
 CYCLE:   205 TIME:   0.039 TIME LEFT:  2.00D  GRAD.:     1.976 HEAT:  124.2561
 CYCLE:   206 TIME:   0.047 TIME LEFT:  2.00D  GRAD.:     6.515 HEAT:  124.2653
 CYCLE:   207 TIME:   0.043 TIME LEFT:  2.00D  GRAD.:     5.302 HEAT:  124.2535
 CYCLE:   208 TIME:   0.039 TIME LEFT:  2.00D  GRAD.:     6.559 HEAT:  124.2520
 CYCLE:   209 TIME:   0.039 TIME LEFT:  2.00D  GRAD.:     2.258 HEAT:  124.2419
 CYCLE:   210 TIME:   0.047 TIME LEFT:  2.00D  GRAD.:     5.294 HEAT:  124.2463
 CYCLE:   211 TIME:   0.039 TIME LEFT:  2.00D  GRAD.:     3.375 HEAT:  124.2360
 CYCLE:   212 TIME:   0.043 TIME LEFT:  2.00D  GRAD.:     9.053 HEAT:  124.2416
 CYCLE:   213 TIME:   0.043 TIME LEFT:  2.00D  GRAD.:     1.318 HEAT:  124.2324
 CYCLE:   214 TIME:   0.043 TIME LEFT:  2.00D  GRAD.:     3.348 HEAT:  124.2320
 CYCLE:   215 TIME:   0.043 TIME LEFT:  2.00D  GRAD.:     2.036 HEAT:  124.2289
 CYCLE:   216 TIME:   0.039 TIME LEFT:  2.00D  GRAD.:     2.485 HEAT:  124.2255
 CYCLE:   217 TIME:   0.039 TIME LEFT:  2.00D  GRAD.:     2.794 HEAT:  124.2229
 CYCLE:   218 TIME:   0.047 TIME LEFT:  2.00D  GRAD.:     4.527 HEAT:  124.2220
 CYCLE:   219 TIME:   0.043 TIME LEFT:  2.00D  GRAD.:    22.758 HEAT:  124.3140
 CYCLE:   220 TIME:   0.039 TIME LEFT:  2.00D  GRAD.:     1.774 HEAT:  124.2178
 CYCLE:   221 TIME:   0.047 TIME LEFT:  2.00D  GRAD.:     2.717 HEAT:  124.2146
 CYCLE:   222 TIME:   0.043 TIME LEFT:  2.00D  GRAD.:    10.833 HEAT:  124.2233
 CYCLE:   223 TIME:   0.039 TIME LEFT:  2.00D  GRAD.:     2.031 HEAT:  124.2058
 CYCLE:   224 TIME:   0.043 TIME LEFT:  2.00D  GRAD.:     1.383 HEAT:  124.2036
 CYCLE:   225 TIME:   0.094 TIME LEFT:  2.00D  GRAD.:     3.471 HEAT:  124.2050
 CYCLE:   226 TIME:   0.043 TIME LEFT:  2.00D  GRAD.:     4.452 HEAT:  124.1957
 CYCLE:   227 TIME:   0.043 TIME LEFT:  2.00D  GRAD.:    13.917 HEAT:  124.2220
 CYCLE:   228 TIME:   0.043 TIME LEFT:  2.00D  GRAD.:     1.412 HEAT:  124.1916
 CYCLE:   229 TIME:   0.047 TIME LEFT:  2.00D  GRAD.:     1.883 HEAT:  124.1912
 CYCLE:   230 TIME:   0.039 TIME LEFT:  2.00D  GRAD.:     6.763 HEAT:  124.1898
 CYCLE:   231 TIME:   0.039 TIME LEFT:  2.00D  GRAD.:     2.093 HEAT:  124.1827
 CYCLE:   232 TIME:   0.043 TIME LEFT:  2.00D  GRAD.:     2.016 HEAT:  124.1790
 CYCLE:   233 TIME:   0.047 TIME LEFT:  2.00D  GRAD.:     3.257 HEAT:  124.1754
 CYCLE:   234 TIME:   0.039 TIME LEFT:  2.00D  GRAD.:     2.960 HEAT:  124.1677
 CYCLE:   235 TIME:   0.039 TIME LEFT:  2.00D  GRAD.:     3.545 HEAT:  124.1610
 CYCLE:   236 TIME:   0.043 TIME LEFT:  2.00D  GRAD.:     2.842 HEAT:  124.1559
 CYCLE:   237 TIME:   0.051 TIME LEFT:  2.00D  GRAD.:     2.377 HEAT:  124.1524
 CYCLE:   238 TIME:   0.043 TIME LEFT:  2.00D  GRAD.:     3.035 HEAT:  124.1481
 CYCLE:   239 TIME:   0.039 TIME LEFT:  2.00D  GRAD.:     2.583 HEAT:  124.1426
 CYCLE:   240 TIME:   0.043 TIME LEFT:  2.00D  GRAD.:     2.467 HEAT:  124.1379
 CYCLE:   241 TIME:   0.043 TIME LEFT:  2.00D  GRAD.:     7.090 HEAT:  124.1344
 CYCLE:   242 TIME:   0.043 TIME LEFT:  2.00D  GRAD.:     2.795 HEAT:  124.1270
 CYCLE:   243 TIME:   0.043 TIME LEFT:  2.00D  GRAD.:     2.631 HEAT:  124.1241
 CYCLE:   244 TIME:   0.039 TIME LEFT:  2.00D  GRAD.:     3.125 HEAT:  124.1178
 CYCLE:   245 TIME:   0.039 TIME LEFT:  2.00D  GRAD.:     3.550 HEAT:  124.1134
 CYCLE:   246 TIME:   0.043 TIME LEFT:  2.00D  GRAD.:     2.777 HEAT:  124.1104
 CYCLE:   247 TIME:   0.043 TIME LEFT:  2.00D  GRAD.:     2.356 HEAT:  124.1069
 CYCLE:   248 TIME:   0.043 TIME LEFT:  2.00D  GRAD.:     7.859 HEAT:  124.1078
 CYCLE:   249 TIME:   0.039 TIME LEFT:  2.00D  GRAD.:     2.644 HEAT:  124.0977
 CYCLE:   250 TIME:   0.043 TIME LEFT:  2.00D  GRAD.:     1.708 HEAT:  124.0949
 CYCLE:   251 TIME:   0.039 TIME LEFT:  2.00D  GRAD.:     1.419 HEAT:  124.0925
 CYCLE:   252 TIME:   0.047 TIME LEFT:  2.00D  GRAD.:     2.768 HEAT:  124.0859
 CYCLE:   253 TIME:   0.039 TIME LEFT:  2.00D  GRAD.:     5.285 HEAT:  124.0848
 CYCLE:   254 TIME:   0.039 TIME LEFT:  2.00D  GRAD.:     2.048 HEAT:  124.0795
 CYCLE:   255 TIME:   0.039 TIME LEFT:  2.00D  GRAD.:     1.237 HEAT:  124.0772
 CYCLE:   256 TIME:   0.047 TIME LEFT:  2.00D  GRAD.:     1.627 HEAT:  124.0750
 CYCLE:   257 TIME:   0.082 TIME LEFT:  2.00D  GRAD.:     6.436 HEAT:  124.0743
 CYCLE:   258 TIME:   0.039 TIME LEFT:  2.00D  GRAD.:     2.437 HEAT:  124.0700
 CYCLE:   259 TIME:   0.039 TIME LEFT:  2.00D  GRAD.:     1.849 HEAT:  124.0678
 CYCLE:   260 TIME:   0.043 TIME LEFT:  2.00D  GRAD.:     2.121 HEAT:  124.0653
 CYCLE:   261 TIME:   0.043 TIME LEFT:  2.00D  GRAD.:     2.494 HEAT:  124.0621
 CYCLE:   262 TIME:   0.043 TIME LEFT:  2.00D  GRAD.:     9.451 HEAT:  124.0671
 CYCLE:   263 TIME:   0.039 TIME LEFT:  2.00D  GRAD.:     1.652 HEAT:  124.0558
 CYCLE:   264 TIME:   0.039 TIME LEFT:  2.00D  GRAD.:     1.455 HEAT:  124.0544
 CYCLE:   265 TIME:   0.043 TIME LEFT:  2.00D  GRAD.:     1.726 HEAT:  124.0504
 CYCLE:   266 TIME:   0.043 TIME LEFT:  2.00D  GRAD.:     2.614 HEAT:  124.0461
 CYCLE:   267 TIME:   0.043 TIME LEFT:  2.00D  GRAD.:     2.797 HEAT:  124.0424
 CYCLE:   268 TIME:   0.043 TIME LEFT:  2.00D  GRAD.:     1.915 HEAT:  124.0382
 CYCLE:   269 TIME:   0.039 TIME LEFT:  2.00D  GRAD.:     1.979 HEAT:  124.0341
 CYCLE:   270 TIME:   0.039 TIME LEFT:  2.00D  GRAD.:     2.875 HEAT:  124.0309
 CYCLE:   271 TIME:   0.043 TIME LEFT:  2.00D  GRAD.:     1.549 HEAT:  124.0277
 CYCLE:   272 TIME:   0.043 TIME LEFT:  2.00D  GRAD.:     1.933 HEAT:  124.0252
 CYCLE:   273 TIME:   0.043 TIME LEFT:  2.00D  GRAD.:     3.238 HEAT:  124.0238
 CYCLE:   274 TIME:   0.039 TIME LEFT:  2.00D  GRAD.:     1.729 HEAT:  124.0225
 CYCLE:   275 TIME:   0.039 TIME LEFT:  2.00D  GRAD.:     1.370 HEAT:  124.0207
 CYCLE:   276 TIME:   0.043 TIME LEFT:  2.00D  GRAD.:     1.551 HEAT:  124.0196
 CYCLE:   277 TIME:   0.043 TIME LEFT:  2.00D  GRAD.:     2.767 HEAT:  124.0180
 CYCLE:   278 TIME:   0.039 TIME LEFT:  2.00D  GRAD.:     1.409 HEAT:  124.0161
 CYCLE:   279 TIME:   0.043 TIME LEFT:  2.00D  GRAD.:     1.209 HEAT:  124.0151
 CYCLE:   280 TIME:   0.043 TIME LEFT:  2.00D  GRAD.:     1.739 HEAT:  124.0134
 CYCLE:   281 TIME:   0.039 TIME LEFT:  2.00D  GRAD.:     2.106 HEAT:  124.0118
 CYCLE:   282 TIME:   0.039 TIME LEFT:  2.00D  GRAD.:     1.160 HEAT:  124.0098
 CYCLE:   283 TIME:   0.043 TIME LEFT:  2.00D  GRAD.:     1.274 HEAT:  124.0085
 CYCLE:   284 TIME:   0.043 TIME LEFT:  2.00D  GRAD.:     1.645 HEAT:  124.0066
 CYCLE:   285 TIME:   0.043 TIME LEFT:  2.00D  GRAD.:     2.119 HEAT:  124.0036
 CYCLE:   286 TIME:   0.043 TIME LEFT:  2.00D  GRAD.:     2.032 HEAT:  124.0012
 CYCLE:   287 TIME:   0.102 TIME LEFT:  2.00D  GRAD.:     2.255 HEAT:  123.9994
 CYCLE:   288 TIME:   0.047 TIME LEFT:  2.00D  GRAD.:     2.930 HEAT:  123.9970
 CYCLE:   289 TIME:   0.039 TIME LEFT:  2.00D  GRAD.:     3.315 HEAT:  123.9944
 CYCLE:   290 TIME:   0.043 TIME LEFT:  2.00D  GRAD.:     1.617 HEAT:  123.9938
 CYCLE:   291 TIME:   0.039 TIME LEFT:  2.00D  GRAD.:     0.899 HEAT:  123.9926

 -------------------------------------------------------------------------------
 PM7 XYZ

 Lipophilicity_1003 - geometry optimisation


     HERBERTS TEST WAS SATISFIED IN BFGS                      
     SCF FIELD WAS ACHIEVED                                   


                              PM7 CALCULATION
                                                       MOPAC v23.0.3 Linux
                                                       Fri Jul 25 16:01:24 2025




          FINAL HEAT OF FORMATION =        123.99264 KCAL/MOL =     518.78522 KJ/MOL


          COSMO AREA              =        433.53 SQUARE ANGSTROMS
          COSMO VOLUME            =        488.51 CUBIC ANGSTROMS

          GRADIENT NORM           =          0.89939          =       0.12354 PER ATOM
          IONIZATION POTENTIAL    =          8.801221 EV
          HOMO LUMO ENERGIES (EV) =         -8.801 -1.103
          NO. OF FILLED LEVELS    =         79
          MOLECULAR WEIGHT        =        418.4572         POINT GROUP:  C1  

          MOLECULAR DIMENSIONS (Angstroms)

            Atom       Atom       Distance
            H    51    H    47    19.35627
            H    46    H    33     8.57963
            H    32    H    41     4.54049


          SCF CALCULATIONS        =        292

          WALL-CLOCK TIME         =     12.520 SECONDS
          COMPUTATION TIME        =          4 MINUTES AND  9.423 SECONDS




   ATOM   CHEMICAL          X               Y               Z
  NUMBER   SYMBOL      (ANGSTROMS)     (ANGSTROMS)     (ANGSTROMS)

     1       C          0.82323106  *   3.45335027  *   0.45501745  *
     2       C          1.22794412  *   1.97679978  *   0.37588128  *
     3       C          2.76547641  *   1.90218165  *   0.19908676  *
     4       N          3.21149699  *   0.51072593  *  -0.03724996  *
     5       C          2.39718183  *  -0.25551418  *  -1.00442789  *
     6       C          1.39882289  *   0.65810202  *  -1.73945357  *
     7       N          0.52984654  *   1.34119010  *  -0.77178511  *
     8       C         -0.75668375  *   0.89023250  *  -0.58881194  *
     9       N         -1.30676220  *   0.07843443  *  -1.55873248  *
    10       C         -2.59719493  *  -0.25108351  *  -1.43753949  *
    11       C         -3.36237803  *   0.20220748  *  -0.35071206  *
    12       O         -4.70662625  *  -0.05350971  *  -0.34575634  *
    13       C         -5.08815411  *  -0.96957656  *   0.68732978  *
    14       C         -6.56372562  *  -1.16568657  *   0.52424831  *
    15       C         -7.13711457  *  -2.34730309  *   1.00109014  *
    16       C         -8.51474346  *  -2.53774555  *   0.85962544  *
    17       N         -9.31688271  *  -1.62765020  *   0.27099833  *
    18       C         -8.77273263  *  -0.49089892  *  -0.18556731  *
    19       C         -7.39413484  *  -0.20767178  *  -0.07114947  *
    20       C         -6.91913245  *   1.03652074  *  -0.55823666  *
    21       N         -6.56327333  *   2.06379328  *  -0.95604960  *
    22       C         -2.74732777  *   1.02054870  *   0.60779392  *
    23       N         -1.45432812  *   1.35092416  *   0.50768447  *
    24       C          4.58387619  *   0.37129363  *  -0.13432628  *
    25       N          5.50951294  *   1.17465059  *   0.43269735  *
    26       O          6.73230213  *   0.56868387  *   0.23742519  *
    27       C          6.50171909  *  -0.60138208  *  -0.47158521  *
    28       N          5.21625602  *  -0.76035291  *  -0.72716268  *
    29       C          7.66278153  *  -1.40869878  *  -0.81906203  *
    30       C          8.75441751  *  -1.61268688  *   0.21600021  *
    31       C          7.84737747  *  -2.75655957  *  -0.14320917  *
    32       H          1.34359287  *   3.96832332  *   1.26865772  *
    33       H          1.02492642  *   3.98463717  *  -0.48148583  *
    34       H         -0.25732553  *   3.54913011  *   0.64910408  *
    35       H          0.93757227  *   1.44678021  *   1.32529546  *
    36       H          3.25246110  *   2.26036721  *   1.14136344  *
    37       H          3.10300200  *   2.58618907  *  -0.61119838  *
    38       H          3.02466606  *  -0.81253941  *  -1.73807656  *
    39       H          1.85404252  *  -1.03121506  *  -0.41142705  *
    40       H          1.92482917  *   1.43885843  *  -2.33615510  *
    41       H          0.80094802  *   0.06264758  *  -2.47332409  *
    42       H         -3.02650278  *  -0.88249281  *  -2.22666783  *
    43       H         -4.52053314  *  -1.91246879  *   0.56263848  *
    44       H         -4.85099787  *  -0.53206106  *   1.67860274  *
    45       H         -6.52632174  *  -3.11272623  *   1.47333488  *
    46       H         -9.01393029  *  -3.44593590  *   1.22194472  *
    47       H         -9.46547184  *   0.22026299  *  -0.65856588  *
    48       H         -3.29110323  *   1.42086367  *   1.47312907  *
    49       H          7.94150451  *  -1.30927757  *  -1.88145108  *
    50       H          8.66641126  *  -1.13598022  *   1.19178367  *
    51       H          9.79532263  *  -1.61702896  *  -0.10050706  *
    52       H          8.22251878  *  -3.59394994  *  -0.72755356  *
    53       H          7.09926254  *  -3.10565968  *   0.56756401  *

                             CARTESIAN COORDINATES

   1    C        0.823231059     3.453350273     0.455017447
   2    C        1.227944124     1.976799776     0.375881277
   3    C        2.765476409     1.902181645     0.199086756
   4    N        3.211496988     0.510725927    -0.037249961
   5    C        2.397181826    -0.255514182    -1.004427892
   6    C        1.398822888     0.658102018    -1.739453568
   7    N        0.529846542     1.341190098    -0.771785113
   8    C       -0.756683751     0.890232503    -0.588811941
   9    N       -1.306762197     0.078434430    -1.558732482
  10    C       -2.597194931    -0.251083509    -1.437539489
  11    C       -3.362378025     0.202207478    -0.350712057
  12    O       -4.706626250    -0.053509710    -0.345756341
  13    C       -5.088154110    -0.969576559     0.687329782
  14    C       -6.563725618    -1.165686566     0.524248313
  15    C       -7.137114567    -2.347303090     1.001090135
  16    C       -8.514743464    -2.537745548     0.859625442
  17    N       -9.316882706    -1.627650199     0.270998328
  18    C       -8.772732632    -0.490898919    -0.185567306
  19    C       -7.394134843    -0.207671782    -0.071149475
  20    C       -6.919132447     1.036520740    -0.558236660
  21    N       -6.563273327     2.063793282    -0.956049601
  22    C       -2.747327768     1.020548702     0.607793921
  23    N       -1.454328116     1.350924159     0.507684470
  24    C        4.583876191     0.371293634    -0.134326280
  25    N        5.509512940     1.174650594     0.432697345
  26    O        6.732302127     0.568683872     0.237425192
  27    C        6.501719092    -0.601382080    -0.471585210
  28    N        5.216256017    -0.760352907    -0.727162680
  29    C        7.662781534    -1.408698775    -0.819062033
  30    C        8.754417515    -1.612686878     0.216000214
  31    C        7.847377466    -2.756559568    -0.143209167
  32    H        1.343592866     3.968323318     1.268657723
  33    H        1.024926425     3.984637174    -0.481485831
  34    H       -0.257325525     3.549130106     0.649104077
  35    H        0.937572270     1.446780212     1.325295456
  36    H        3.252461102     2.260367207     1.141363444
  37    H        3.103002002     2.586189066    -0.611198377
  38    H        3.024666059    -0.812539414    -1.738076563
  39    H        1.854042518    -1.031215060    -0.411427054
  40    H        1.924829169     1.438858431    -2.336155099
  41    H        0.800948017     0.062647575    -2.473324088
  42    H       -3.026502776    -0.882492811    -2.226667830
  43    H       -4.520533141    -1.912468787     0.562638484
  44    H       -4.850997869    -0.532061057     1.678602736
  45    H       -6.526321740    -3.112726229     1.473334877
  46    H       -9.013930290    -3.445935896     1.221944717
  47    H       -9.465471838     0.220262988    -0.658565882
  48    H       -3.291103225     1.420863669     1.473129072
  49    H        7.941504511    -1.309277571    -1.881451080
  50    H        8.666411261    -1.135980217     1.191783673
  51    H        9.795322629    -1.617028964    -0.100507060
  52    H        8.222518781    -3.593949936    -0.727553560
  53    H        7.099262543    -3.105659680     0.567564014


           Empirical Formula: C21 H22 N8 O2  =    53 atoms



      MOLECULAR POINT GROUP   :   C1  


                  EIGENVALUES  
 -38.18780 -37.98320 -36.71652 -36.45114 -35.51752 -34.76940 -34.12945 -32.81695
 -31.23185 -30.93002 -29.67538 -29.45362 -28.07767 -27.47297 -27.01901 -26.05429
 -25.28481 -24.64333 -23.76639 -23.56332 -23.35888 -22.55466 -22.25412 -21.85587
 -21.59120 -20.84842 -20.13044 -19.45441 -19.33973 -18.65296 -18.47344 -18.32662
 -18.05712 -17.45753 -17.36218 -17.16613 -17.01473 -16.63390 -16.52570 -16.08795
 -15.77345 -15.73762 -15.66976 -15.56763 -15.18483 -15.01361 -14.88334 -14.58974
 -14.46461 -14.25628 -14.11226 -14.01874 -13.95218 -13.87311 -13.73758 -13.48326
 -13.35442 -13.31222 -13.22779 -13.11075 -13.00876 -12.86507 -12.54413 -12.49354
 -12.29135 -12.21517 -12.03190 -11.86581 -11.82120 -11.67536 -11.34888 -11.11247
 -10.99282 -10.89821 -10.82863 -10.58367  -9.88491  -9.16333  -8.80122  -1.10291
  -0.74673  -0.35531  -0.32347  -0.18454   0.63434   0.90790   1.09668   1.25937
   1.29707   1.53841   1.60599   1.66879   2.07586   2.12746   2.27711   2.50185
   2.64465   2.88461   3.00983   3.08473   3.16380   3.17560   3.37135   3.43784
   3.66488   3.69477   3.70322   3.74018   3.82453   3.83983   3.89257   3.93392
   4.05200   4.21276   4.32352   4.39769   4.46135   4.59971   4.63092   4.70227
   4.71646   4.85244   4.98328   5.01252   5.07090   5.09299   5.18414   5.25183
   5.30018   5.31493   5.38304   5.39302   5.48862   5.53280   5.55791   5.59124
   5.64697   5.75702   5.76158   5.80953   5.88137   5.88204   5.89371   5.89402
   5.97243   6.96359


              NET ATOMIC CHARGES AND DIPOLE CONTRIBUTIONS

  ATOM NO.   TYPE          CHARGE      No. of ELECS.   s-Pop       p-Pop       
    1          C          -0.468701        4.4687     1.05900     3.40970
    2          C           0.110500        3.8895     1.07559     2.81391
    3          C          -0.130227        4.1302     1.08122     3.04900
    4          N          -0.366723        5.3667     1.61099     3.75574
    5          C          -0.123687        4.1237     1.07887     3.04482
    6          C          -0.103405        4.1034     1.07496     3.02845
    7          N          -0.391365        5.3914     1.58002     3.81134
    8          C           0.493698        3.5063     1.05639     2.44991
    9          N          -0.506788        5.5068     1.75517     3.75161
   10          C           0.128482        3.8715     1.10338     2.76814
   11          C          -0.091928        4.0919     1.06704     3.02489
   12          O          -0.294283        6.2943     1.87743     4.41685
   13          C          -0.086862        4.0869     1.08987     2.99699
   14          C           0.093964        3.9060     1.07871     2.82733
   15          C          -0.278156        4.2782     1.08656     3.19160
   16          C           0.086593        3.9134     1.10211     2.81130
   17          N          -0.369418        5.3694     1.74114     3.62828
   18          C           0.088881        3.9111     1.10485     2.80627
   19          C          -0.122864        4.1229     1.04382     3.07904
   20          C           0.128680        3.8713     1.09471     2.77661
   21          N          -0.215101        5.2151     1.83038     3.38472
   22          C           0.112655        3.8873     1.10251     2.78484
   23          N          -0.502985        5.5030     1.75618     3.74681
   24          C           0.373048        3.6270     1.07954     2.54741
   25          N          -0.360884        5.3609     1.83514     3.52575
   26          O          -0.000705        6.0007     1.91846     4.08224
   27          C           0.258680        3.7413     1.12529     2.61603
   28          N          -0.481311        5.4813     1.77786     3.70345
   29          C          -0.191904        4.1919     1.03590     3.15601
   30          C          -0.287738        4.2877     1.05487     3.23287
   31          C          -0.270954        4.2710     1.05511     3.21585
   32          H           0.154117        0.8459     0.84588
   33          H           0.156924        0.8431     0.84308
   34          H           0.181212        0.8188     0.81879
   35          H           0.164135        0.8359     0.83586
   36          H           0.178339        0.8217     0.82166
   37          H           0.148920        0.8511     0.85108
   38          H           0.177619        0.8224     0.82238
   39          H           0.168502        0.8315     0.83150
   40          H           0.158057        0.8419     0.84194
   41          H           0.192742        0.8073     0.80726
   42          H           0.190423        0.8096     0.80958
   43          H           0.151501        0.8485     0.84850
   44          H           0.151610        0.8484     0.84839
   45          H           0.175928        0.8241     0.82407
   46          H           0.177011        0.8230     0.82299
   47          H           0.187565        0.8124     0.81243
   48          H           0.186239        0.8138     0.81376
   49          H           0.194492        0.8055     0.80551
   50          H           0.171355        0.8286     0.82865
   51          H           0.166980        0.8330     0.83302
   52          H           0.165677        0.8343     0.83432
   53          H           0.171456        0.8285     0.82854
 DIPOLE           X         Y         Z       TOTAL
 POINT-CHG.     2.468    -4.420     1.608     5.311
 HYBRID         0.262    -0.266    -0.220     0.433
 SUM            2.730    -4.686     1.388     5.598


          ATOMIC ORBITAL ELECTRON POPULATIONS

     Atom    s        px        py        pz   
    1  C   1.05900   1.20157   1.02872   1.17941
    2  C   1.07559   0.90537   0.97764   0.93091
    3  C   1.08122   1.01693   0.86180   1.17028
    4  N   1.61099   1.05332   1.21263   1.48979
    5  C   1.07887   1.01513   1.00942   1.02027
    6  C   1.07496   0.99362   1.06192   0.97290
    7  N   1.58002   1.10323   1.44300   1.26510
    8  C   1.05639   0.84585   0.80470   0.79936
    9  N   1.75517   1.19208   1.23952   1.32001
   10  C   1.10338   0.86635   0.91353   0.98826
   11  C   1.06704   0.86052   1.10870   1.05566
   12  O   1.87743   1.23681   1.64610   1.53395
   13  C   1.08987   0.97552   1.02708   0.99439
   14  C   1.07871   0.97207   0.95000   0.90526
   15  C   1.08656   1.04282   1.05703   1.09174
   16  C   1.10211   0.93498   0.98882   0.88750
   17  N   1.74114   1.40790   1.08460   1.13578
   18  C   1.10485   0.96088   0.94055   0.90484
   19  C   1.04382   1.00372   0.97963   1.09569
   20  C   1.09471   0.92892   0.91404   0.93364
   21  N   1.83038   1.09243   1.19436   1.09793
   22  C   1.10251   0.88968   0.88583   1.00933
   23  N   1.75618   1.15118   1.32503   1.27060
   24  C   1.07954   0.84706   0.82310   0.87725
   25  N   1.83514   0.95785   1.22251   1.34538
   26  O   1.91846   1.17801   1.31396   1.59027
   27  C   1.12529   0.89718   0.86321   0.85564
   28  N   1.77786   1.11950   1.27261   1.31134
   29  C   1.03590   1.00907   1.05863   1.08831
   30  C   1.05487   1.05197   1.08506   1.09584
   31  C   1.05511   1.11405   0.97559   1.12620
   32  H   0.84588
   33  H   0.84308
   34  H   0.81879
   35  H   0.83586
   36  H   0.82166
   37  H   0.85108
   38  H   0.82238
   39  H   0.83150
   40  H   0.84194
   41  H   0.80726
   42  H   0.80958
   43  H   0.84850
   44  H   0.84839
   45  H   0.82407
   46  H   0.82299
   47  H   0.81243
   48  H   0.81376
   49  H   0.80551
   50  H   0.82865
   51  H   0.83302
   52  H   0.83432
   53  H   0.82854

 **********************
 *                    *
 * JOB ENDED NORMALLY *
 *                    *
 **********************



 TOTAL JOB TIME:            12.52 SECONDS

 == MOPAC DONE ==
