 *******************************************************************************
 **                                                                           **
 **                              MOPAC v23.0.3                                **
 **                                                                           **
 *******************************************************************************
 **          Digital Object Identifier (DOI): 10.5281/zenodo.6511958          **
 **    Visit the DOI location for information on how to cite this program.    **
 *******************************************************************************

                              PM7 CALCULATION RESULTS

 *******************************************************************************
 *  CALCULATION DONE:                                Fri Jul 25 18:39:45 2025  *
 *  PM7        - The PM7 Hamiltonian to be used
 *  XYZ        - CARTESIAN COORDINATE SYSTEM TO BE USED
 *  T=         - A TIME OF 172800.0 SECONDS REQUESTED
 *  DUMP=N     - RESTART FILE WRITTEN EVERY 7200.0 SECONDS REQUESTED
 *******************************************************************************
PM7 XYZ

 Lipophilicity_1938 - geometry optimisation
   ATOM   CHEMICAL          X               Y               Z
  NUMBER   SYMBOL      (ANGSTROMS)     (ANGSTROMS)     (ANGSTROMS)

     1       O         -7.44532000  *   1.08449600  *   1.89137800  *
     2       C         -6.27227100  *   0.89788900  *   2.61910100  *
     3       O         -6.33838900  *   0.83767300  *   3.87672500  *
     4       C         -4.96734300  *   0.77165200  *   1.91421300  *
     5       C         -4.93766400  *   0.82471400  *   0.51338300  *
     6       N         -3.76385400  *   0.74884400  *  -0.18532700  *
     7       C         -3.83084300  *   0.84062500  *  -1.65685400  *
     8       C         -3.10929900  *   2.05393500  *  -2.23647700  *
     9       C         -4.62320800  *   2.02855300  *  -2.20234200  *
    10       C         -2.57705300  *   0.49930300  *   0.47145100  *
    11       C         -1.37007400  *   0.27793400  *  -0.23204300  *
    12       C         -0.16229300  *   0.05866600  *   0.44579500  *
    13       N          1.05249800  *  -0.14864300  *  -0.29732600  *
    14       C          1.07781700  *  -1.13600900  *  -1.38647400  *
    15       C          2.45672400  *  -1.80430800  *  -1.47282800  *
    16       N          3.54606300  *  -0.82892500  *  -1.32238100  *
    17       C          3.23303900  *   0.60044200  *  -1.20558000  *
    18       C          2.16590800  *   0.79947900  *  -0.12763900  *
    19       C          4.90479700  *  -1.29912300  *  -1.34452900  *
    20       O          5.24006800  *  -2.18925600  *  -2.17233700  *
    21       C          5.93028800  *  -0.77761900  *  -0.37256900  *
    22       C          6.56118200  *  -1.90861300  *   0.44716000  *
    23       N          5.56147200  *  -2.55809400  *   1.28952600  *
    24       O          4.96306700  *  -3.57502100  *   0.88185900  *
    25       O          5.14087100  *  -1.94521800  *   2.44643100  *
    26       C         -0.15204200  *   0.04001300  *   1.84608100  *
    27       F          0.99537700  *  -0.20967000  *   2.52513500  *
    28       C         -1.33490000  *   0.22804200  *   2.55950700  *
    29       C         -2.55341400  *   0.44774800  *   1.88873400  *
    30       C         -3.75398600  *   0.59889400  *   2.60562400  *
    31       O         -3.74104700  *   0.56664600  *   3.86793200  *
    32       H         -8.33991100  *   1.17104400  *   2.35882900  *
    33       H         -5.87043200  *   0.93976800  *  -0.02665600  *
    34       H         -3.82019900  *  -0.09514400  *  -2.25528000  *
    35       H         -2.67425100  *   1.88799600  *  -3.24451900  *
    36       H         -2.65308000  *   2.74294100  *  -1.49331200  *
    37       H         -5.08535600  *   1.86073700  *  -3.19783100  *
    38       H         -5.04644500  *   2.74107800  *  -1.46265200  *
    39       H         -1.34892200  *   0.27262000  *  -1.31221200  *
    40       H          0.30681800  *  -1.92053000  *  -1.22088500  *
    41       H          0.85091300  *  -0.62534600  *  -2.34741700  *
    42       H          2.53701600  *  -2.55989500  *  -0.66113100  *
    43       H          2.54862300  *  -2.32656000  *  -2.44948100  *
    44       H          2.84427300  *   0.96546300  *  -2.18100200  *
    45       H          4.13085100  *   1.20760600  *  -0.96661600  *
    46       H          1.78472600  *   1.84209700  *  -0.18356400  *
    47       H          2.63599500  *   0.64756400  *   0.86616700  *
    48       H          5.47402800  *  -0.05223000  *   0.33362300  *
    49       H          6.72548100  *  -0.25055400  *  -0.94187300  *
    50       H          7.35792900  *  -1.48345900  *   1.09400000  *
    51       H          7.04083400  *  -2.65569400  *  -0.22478100  *
    52       H         -1.29506300  *   0.18617800  *   3.64126500  *



          CARTESIAN COORDINATES 

    NO.       ATOM           X           Y           Z

     1         O         -7.4453      1.0845      1.8914
     2         C         -6.2723      0.8979      2.6191
     3         O         -6.3384      0.8377      3.8767
     4         C         -4.9673      0.7717      1.9142
     5         C         -4.9377      0.8247      0.5134
     6         N         -3.7639      0.7488     -0.1853
     7         C         -3.8308      0.8406     -1.6569
     8         C         -3.1093      2.0539     -2.2365
     9         C         -4.6232      2.0286     -2.2023
    10         C         -2.5771      0.4993      0.4715
    11         C         -1.3701      0.2779     -0.2320
    12         C         -0.1623      0.0587      0.4458
    13         N          1.0525     -0.1486     -0.2973
    14         C          1.0778     -1.1360     -1.3865
    15         C          2.4567     -1.8043     -1.4728
    16         N          3.5461     -0.8289     -1.3224
    17         C          3.2330      0.6004     -1.2056
    18         C          2.1659      0.7995     -0.1276
    19         C          4.9048     -1.2991     -1.3445
    20         O          5.2401     -2.1893     -2.1723
    21         C          5.9303     -0.7776     -0.3726
    22         C          6.5612     -1.9086      0.4472
    23         N          5.5615     -2.5581      1.2895
    24         O          4.9631     -3.5750      0.8819
    25         O          5.1409     -1.9452      2.4464
    26         C         -0.1520      0.0400      1.8461
    27         F          0.9954     -0.2097      2.5251
    28         C         -1.3349      0.2280      2.5595
    29         C         -2.5534      0.4477      1.8887
    30         C         -3.7540      0.5989      2.6056
    31         O         -3.7410      0.5666      3.8679
    32         H         -8.3399      1.1710      2.3588
    33         H         -5.8704      0.9398     -0.0267
    34         H         -3.8202     -0.0951     -2.2553
    35         H         -2.6743      1.8880     -3.2445
    36         H         -2.6531      2.7429     -1.4933
    37         H         -5.0854      1.8607     -3.1978
    38         H         -5.0464      2.7411     -1.4627
    39         H         -1.3489      0.2726     -1.3122
    40         H          0.3068     -1.9205     -1.2209
    41         H          0.8509     -0.6253     -2.3474
    42         H          2.5370     -2.5599     -0.6611
    43         H          2.5486     -2.3266     -2.4495
    44         H          2.8443      0.9655     -2.1810
    45         H          4.1309      1.2076     -0.9666
    46         H          1.7847      1.8421     -0.1836
    47         H          2.6360      0.6476      0.8662
    48         H          5.4740     -0.0522      0.3336
    49         H          6.7255     -0.2506     -0.9419
    50         H          7.3579     -1.4835      1.0940
    51         H          7.0408     -2.6557     -0.2248
    52         H         -1.2951      0.1862      3.6413

 General Reference for PM7:
 "Optimization of Parameters for Semiempirical Methods VI: More Modifications to the 
 NDDO Approximations and Re-optimization of Parameters", J. J. P. Stewart, J. Mol. Mod., 1:32, 19 (2013)
 https://link.springer.com/article/10.1007/s00894-012-1667-x

           Empirical Formula: C20 H21 N4 O6 F  =    52 atoms



      MOLECULAR POINT GROUP   :   C1  


      RHF CALCULATION, NO. OF DOUBLY OCCUPIED LEVELS = 82


          Geometry optimization using L-BFGS
 CYCLE:     1 TIME:   0.086 TIME LEFT:  2.00D  GRAD.:   414.181 HEAT: -85.75327
 CYCLE:     2 TIME:   0.039 TIME LEFT:  2.00D  GRAD.:   405.315 HEAT: -87.45015
 CYCLE:     3 TIME:   0.047 TIME LEFT:  2.00D  GRAD.:   241.963 HEAT: -121.3376
 CYCLE:     4 TIME:   0.047 TIME LEFT:  2.00D  GRAD.:   405.335 HEAT: -87.45098
 CYCLE:     5 TIME:   0.047 TIME LEFT:  2.00D  GRAD.:   242.093 HEAT: -121.3310
 CYCLE:     6 TIME:   0.039 TIME LEFT:  2.00D  GRAD.:    91.796 HEAT: -127.4959
 CYCLE:     7 TIME:   0.039 TIME LEFT:  2.00D  GRAD.:    63.112 HEAT: -129.1939
 CYCLE:     8 TIME:   0.047 TIME LEFT:  2.00D  GRAD.:    70.691 HEAT: -132.5766
 CYCLE:     9 TIME:   0.039 TIME LEFT:  2.00D  GRAD.:    70.353 HEAT: -135.0422
 CYCLE:    10 TIME:   0.047 TIME LEFT:  2.00D  GRAD.:   129.506 HEAT: -135.7077
 CYCLE:    11 TIME:   0.039 TIME LEFT:  2.00D  GRAD.:    29.878 HEAT: -138.4211
 CYCLE:    12 TIME:   0.039 TIME LEFT:  2.00D  GRAD.:    18.032 HEAT: -138.6832
 CYCLE:    13 TIME:   0.047 TIME LEFT:  2.00D  GRAD.:    16.591 HEAT: -138.9876
 CYCLE:    14 TIME:   0.039 TIME LEFT:  2.00D  GRAD.:    28.083 HEAT: -139.2795
 CYCLE:    15 TIME:   0.039 TIME LEFT:  2.00D  GRAD.:    21.080 HEAT: -139.5127
 CYCLE:    16 TIME:   0.047 TIME LEFT:  2.00D  GRAD.:    16.812 HEAT: -139.7006
 CYCLE:    17 TIME:   0.047 TIME LEFT:  2.00D  GRAD.:    23.208 HEAT: -140.1067
 CYCLE:    18 TIME:   0.039 TIME LEFT:  2.00D  GRAD.:    26.349 HEAT: -140.3923
 CYCLE:    19 TIME:   0.047 TIME LEFT:  2.00D  GRAD.:    22.720 HEAT: -140.7680
 CYCLE:    20 TIME:   0.039 TIME LEFT:  2.00D  GRAD.:    29.175 HEAT: -140.9616
 CYCLE:    21 TIME:   0.055 TIME LEFT:  2.00D  GRAD.:    16.799 HEAT: -141.1412
 CYCLE:    22 TIME:   0.039 TIME LEFT:  2.00D  GRAD.:    14.464 HEAT: -141.3075
 CYCLE:    23 TIME:   0.047 TIME LEFT:  2.00D  GRAD.:    16.038 HEAT: -141.4878
 CYCLE:    24 TIME:   0.039 TIME LEFT:  2.00D  GRAD.:    29.658 HEAT: -141.7246
 CYCLE:    25 TIME:   0.039 TIME LEFT:  2.00D  GRAD.:    19.800 HEAT: -142.0068
 CYCLE:    26 TIME:   0.047 TIME LEFT:  2.00D  GRAD.:    15.750 HEAT: -142.2295
 CYCLE:    27 TIME:   0.039 TIME LEFT:  2.00D  GRAD.:    20.052 HEAT: -142.5307
 CYCLE:    28 TIME:   0.047 TIME LEFT:  2.00D  GRAD.:    25.274 HEAT: -142.6824
 CYCLE:    29 TIME:   0.039 TIME LEFT:  2.00D  GRAD.:    15.668 HEAT: -142.8447
 CYCLE:    30 TIME:   0.047 TIME LEFT:  2.00D  GRAD.:    13.939 HEAT: -143.0784
 CYCLE:    31 TIME:   0.039 TIME LEFT:  2.00D  GRAD.:    17.712 HEAT: -143.2196
 CYCLE:    32 TIME:   0.047 TIME LEFT:  2.00D  GRAD.:    22.598 HEAT: -143.4588
 CYCLE:    33 TIME:   0.039 TIME LEFT:  2.00D  GRAD.:    20.893 HEAT: -143.7000
 CYCLE:    34 TIME:   0.047 TIME LEFT:  2.00D  GRAD.:    16.599 HEAT: -143.9049
 CYCLE:    35 TIME:   0.039 TIME LEFT:  2.00D  GRAD.:    19.991 HEAT: -144.1086
 CYCLE:    36 TIME:   0.047 TIME LEFT:  2.00D  GRAD.:    17.959 HEAT: -144.2954
 CYCLE:    37 TIME:   0.039 TIME LEFT:  2.00D  GRAD.:    17.228 HEAT: -144.5121
 CYCLE:    38 TIME:   0.047 TIME LEFT:  2.00D  GRAD.:    20.652 HEAT: -144.7918
 CYCLE:    39 TIME:   0.047 TIME LEFT:  2.00D  GRAD.:    29.911 HEAT: -144.9533
 CYCLE:    40 TIME:   0.039 TIME LEFT:  2.00D  GRAD.:    14.806 HEAT: -145.1794
 CYCLE:    41 TIME:   0.047 TIME LEFT:  2.00D  GRAD.:    14.817 HEAT: -145.3372
 CYCLE:    42 TIME:   0.047 TIME LEFT:  2.00D  GRAD.:    18.399 HEAT: -145.5660
 CYCLE:    43 TIME:   0.047 TIME LEFT:  2.00D  GRAD.:    51.405 HEAT: -145.5383
 CYCLE:    44 TIME:   0.039 TIME LEFT:  2.00D  GRAD.:    14.869 HEAT: -145.8820
 CYCLE:    45 TIME:   0.039 TIME LEFT:  2.00D  GRAD.:    10.490 HEAT: -145.9772
 CYCLE:    46 TIME:   0.047 TIME LEFT:  2.00D  GRAD.:    15.417 HEAT: -146.1366
 CYCLE:    47 TIME:   0.047 TIME LEFT:  2.00D  GRAD.:    19.949 HEAT: -146.3425
 CYCLE:    48 TIME:   0.039 TIME LEFT:  2.00D  GRAD.:    27.873 HEAT: -146.5656
 CYCLE:    49 TIME:   0.047 TIME LEFT:  2.00D  GRAD.:    15.414 HEAT: -146.8153
 CYCLE:    50 TIME:   0.047 TIME LEFT:  2.00D  GRAD.:    19.160 HEAT: -147.0379
 CYCLE:    51 TIME:   0.039 TIME LEFT:  2.00D  GRAD.:    19.351 HEAT: -147.2335
 CYCLE:    52 TIME:   0.047 TIME LEFT:  2.00D  GRAD.:    20.041 HEAT: -147.5945
 CYCLE:    53 TIME:   0.047 TIME LEFT:  2.00D  GRAD.:    52.119 HEAT: -147.6508
 CYCLE:    54 TIME:   0.039 TIME LEFT:  2.00D  GRAD.:    17.819 HEAT: -148.0306
 CYCLE:    55 TIME:   0.273 TIME LEFT:  2.00D  GRAD.:    14.225 HEAT: -148.1739
 CYCLE:    56 TIME:   0.047 TIME LEFT:  2.00D  GRAD.:    18.839 HEAT: -148.3937
 CYCLE:    57 TIME:   0.047 TIME LEFT:  2.00D  GRAD.:    17.934 HEAT: -148.6121
 CYCLE:    58 TIME:   0.039 TIME LEFT:  2.00D  GRAD.:    19.873 HEAT: -148.8985
 CYCLE:    59 TIME:   0.047 TIME LEFT:  2.00D  GRAD.:    28.712 HEAT: -149.1191
 CYCLE:    60 TIME:   0.039 TIME LEFT:  2.00D  GRAD.:    14.982 HEAT: -149.3160
 CYCLE:    61 TIME:   0.047 TIME LEFT:  2.00D  GRAD.:    14.366 HEAT: -149.4338
 CYCLE:    62 TIME:   0.039 TIME LEFT:  2.00D  GRAD.:    23.861 HEAT: -149.5508
 CYCLE:    63 TIME:   0.047 TIME LEFT:  2.00D  GRAD.:    16.400 HEAT: -149.7308
 CYCLE:    64 TIME:   0.039 TIME LEFT:  2.00D  GRAD.:     9.756 HEAT: -149.8377
 CYCLE:    65 TIME:   0.047 TIME LEFT:  2.00D  GRAD.:    10.028 HEAT: -149.9194
 CYCLE:    66 TIME:   0.047 TIME LEFT:  2.00D  GRAD.:    20.018 HEAT: -149.9767
 CYCLE:    67 TIME:   0.039 TIME LEFT:  2.00D  GRAD.:    18.750 HEAT: -150.0834
 CYCLE:    68 TIME:   0.039 TIME LEFT:  2.00D  GRAD.:    11.327 HEAT: -150.1735
 CYCLE:    69 TIME:   0.039 TIME LEFT:  2.00D  GRAD.:     8.110 HEAT: -150.2354
 CYCLE:    70 TIME:   0.047 TIME LEFT:  2.00D  GRAD.:     9.050 HEAT: -150.2762
 CYCLE:    71 TIME:   0.039 TIME LEFT:  2.00D  GRAD.:    12.897 HEAT: -150.3196
 CYCLE:    72 TIME:   0.039 TIME LEFT:  2.00D  GRAD.:    26.451 HEAT: -150.3535
 CYCLE:    73 TIME:   0.039 TIME LEFT:  2.00D  GRAD.:     8.598 HEAT: -150.4624
 CYCLE:    74 TIME:   0.047 TIME LEFT:  2.00D  GRAD.:     6.745 HEAT: -150.5015
 CYCLE:    75 TIME:   0.039 TIME LEFT:  2.00D  GRAD.:     8.163 HEAT: -150.5541
 CYCLE:    76 TIME:   0.062 TIME LEFT:  2.00D  GRAD.:    15.229 HEAT: -150.6120
 CYCLE:    77 TIME:   0.055 TIME LEFT:  2.00D  GRAD.:    21.243 HEAT: -150.6465
 CYCLE:    78 TIME:   0.047 TIME LEFT:  2.00D  GRAD.:     7.358 HEAT: -150.7399
 CYCLE:    79 TIME:   0.039 TIME LEFT:  2.00D  GRAD.:     5.894 HEAT: -150.7804
 CYCLE:    80 TIME:   0.047 TIME LEFT:  2.00D  GRAD.:    13.167 HEAT: -150.8247
 CYCLE:    81 TIME:   0.039 TIME LEFT:  2.00D  GRAD.:    11.291 HEAT: -150.8956
 CYCLE:    82 TIME:   0.047 TIME LEFT:  2.00D  GRAD.:     8.215 HEAT: -150.9753
 CYCLE:    83 TIME:   0.039 TIME LEFT:  2.00D  GRAD.:     8.157 HEAT: -151.0290
 CYCLE:    84 TIME:   0.047 TIME LEFT:  2.00D  GRAD.:    16.440 HEAT: -151.0119
 CYCLE:    85 TIME:   0.047 TIME LEFT:  2.00D  GRAD.:     7.965 HEAT: -151.1036
 CYCLE:    86 TIME:   0.039 TIME LEFT:  2.00D  GRAD.:     7.548 HEAT: -151.1376
 CYCLE:    87 TIME:   0.039 TIME LEFT:  2.00D  GRAD.:     5.718 HEAT: -151.1793
 CYCLE:    88 TIME:   0.047 TIME LEFT:  2.00D  GRAD.:    15.427 HEAT: -151.2115
 CYCLE:    89 TIME:   0.039 TIME LEFT:  2.00D  GRAD.:     8.903 HEAT: -151.2756
 CYCLE:    90 TIME:   0.047 TIME LEFT:  2.00D  GRAD.:     6.157 HEAT: -151.3034
 CYCLE:    91 TIME:   0.039 TIME LEFT:  2.00D  GRAD.:     7.702 HEAT: -151.3491
 CYCLE:    92 TIME:   0.047 TIME LEFT:  2.00D  GRAD.:    18.055 HEAT: -151.3616
 CYCLE:    93 TIME:   0.047 TIME LEFT:  2.00D  GRAD.:    11.584 HEAT: -151.3469
 CYCLE:    94 TIME:   0.039 TIME LEFT:  2.00D  GRAD.:    12.882 HEAT: -151.4440
 CYCLE:    95 TIME:   0.047 TIME LEFT:  2.00D  GRAD.:     9.604 HEAT: -151.4764
 CYCLE:    96 TIME:   0.039 TIME LEFT:  2.00D  GRAD.:     7.172 HEAT: -151.5016
 CYCLE:    97 TIME:   0.047 TIME LEFT:  2.00D  GRAD.:    10.292 HEAT: -151.5420
 CYCLE:    98 TIME:   0.047 TIME LEFT:  2.00D  GRAD.:    12.614 HEAT: -151.5647
 CYCLE:    99 TIME:   0.047 TIME LEFT:  2.00D  GRAD.:     5.759 HEAT: -151.6043
 CYCLE:   100 TIME:   0.062 TIME LEFT:  2.00D  GRAD.:     8.330 HEAT: -151.6472
 CYCLE:   101 TIME:   0.047 TIME LEFT:  2.00D  GRAD.:    30.373 HEAT: -151.5532
 CYCLE:   102 TIME:   0.047 TIME LEFT:  2.00D  GRAD.:     9.957 HEAT: -151.7064
 CYCLE:   103 TIME:   0.039 TIME LEFT:  2.00D  GRAD.:     8.074 HEAT: -151.7310
 CYCLE:   104 TIME:   0.039 TIME LEFT:  2.00D  GRAD.:     6.828 HEAT: -151.7731
 CYCLE:   105 TIME:   0.047 TIME LEFT:  2.00D  GRAD.:    10.022 HEAT: -151.8251
 CYCLE:   106 TIME:   0.039 TIME LEFT:  2.00D  GRAD.:    12.733 HEAT: -151.8623
 CYCLE:   107 TIME:   0.039 TIME LEFT:  2.00D  GRAD.:     6.898 HEAT: -151.8903
 CYCLE:   108 TIME:   0.047 TIME LEFT:  2.00D  GRAD.:     5.835 HEAT: -151.9174
 CYCLE:   109 TIME:   0.047 TIME LEFT:  2.00D  GRAD.:     6.342 HEAT: -151.9345
 CYCLE:   110 TIME:   0.047 TIME LEFT:  2.00D  GRAD.:    15.617 HEAT: -151.9090
 CYCLE:   111 TIME:   0.039 TIME LEFT:  2.00D  GRAD.:    11.744 HEAT: -151.9808
 CYCLE:   112 TIME:   0.039 TIME LEFT:  2.00D  GRAD.:     8.940 HEAT: -152.0011
 CYCLE:   113 TIME:   0.047 TIME LEFT:  2.00D  GRAD.:     4.293 HEAT: -152.0163
 CYCLE:   114 TIME:   0.039 TIME LEFT:  2.00D  GRAD.:     5.809 HEAT: -152.0339
 CYCLE:   115 TIME:   0.039 TIME LEFT:  2.00D  GRAD.:     9.652 HEAT: -152.0522
 CYCLE:   116 TIME:   0.047 TIME LEFT:  2.00D  GRAD.:    14.085 HEAT: -152.0420
 CYCLE:   117 TIME:   0.047 TIME LEFT:  2.00D  GRAD.:    10.696 HEAT: -152.1028
 CYCLE:   118 TIME:   0.039 TIME LEFT:  2.00D  GRAD.:    11.571 HEAT: -152.1205
 CYCLE:   119 TIME:   0.039 TIME LEFT:  2.00D  GRAD.:     4.561 HEAT: -152.1404
 CYCLE:   120 TIME:   0.039 TIME LEFT:  2.00D  GRAD.:     3.863 HEAT: -152.1499
 CYCLE:   121 TIME:   0.039 TIME LEFT:  2.00D  GRAD.:     5.891 HEAT: -152.1655
 CYCLE:   122 TIME:   0.039 TIME LEFT:  2.00D  GRAD.:     7.177 HEAT: -152.1891
 CYCLE:   123 TIME:   0.047 TIME LEFT:  2.00D  GRAD.:    18.093 HEAT: -152.1918
 CYCLE:   124 TIME:   0.039 TIME LEFT:  2.00D  GRAD.:     7.220 HEAT: -152.2351
 CYCLE:   125 TIME:   0.039 TIME LEFT:  2.00D  GRAD.:     3.584 HEAT: -152.2508
 CYCLE:   126 TIME:   0.047 TIME LEFT:  2.00D  GRAD.:     4.479 HEAT: -152.2691
 CYCLE:   127 TIME:   0.047 TIME LEFT:  2.00D  GRAD.:     8.435 HEAT: -152.2813
 CYCLE:   128 TIME:   0.039 TIME LEFT:  2.00D  GRAD.:    13.777 HEAT: -152.2914
 CYCLE:   129 TIME:   0.039 TIME LEFT:  2.00D  GRAD.:     4.577 HEAT: -152.3192
 CYCLE:   130 TIME:   0.039 TIME LEFT:  2.00D  GRAD.:     3.276 HEAT: -152.3310
 CYCLE:   131 TIME:   0.047 TIME LEFT:  2.00D  GRAD.:     9.523 HEAT: -152.3318
 CYCLE:   132 TIME:   0.047 TIME LEFT:  2.00D  GRAD.:     8.419 HEAT: -152.3387
 CYCLE:   133 TIME:   0.078 TIME LEFT:  2.00D  GRAD.:     6.659 HEAT: -152.3659
 CYCLE:   134 TIME:   0.047 TIME LEFT:  2.00D  GRAD.:     6.443 HEAT: -152.3745
 CYCLE:   135 TIME:   0.039 TIME LEFT:  2.00D  GRAD.:     3.931 HEAT: -152.3948
 CYCLE:   136 TIME:   0.039 TIME LEFT:  2.00D  GRAD.:     8.740 HEAT: -152.4042
 CYCLE:   137 TIME:   0.039 TIME LEFT:  2.00D  GRAD.:     6.370 HEAT: -152.4180
 CYCLE:   138 TIME:   0.047 TIME LEFT:  2.00D  GRAD.:    21.010 HEAT: -152.3558
 CYCLE:   139 TIME:   0.047 TIME LEFT:  2.00D  GRAD.:     3.268 HEAT: -152.4478
 CYCLE:   140 TIME:   0.039 TIME LEFT:  2.00D  GRAD.:     3.695 HEAT: -152.4576
 CYCLE:   141 TIME:   0.047 TIME LEFT:  2.00D  GRAD.:     6.823 HEAT: -152.4902
 CYCLE:   142 TIME:   0.039 TIME LEFT:  2.00D  GRAD.:    19.733 HEAT: -152.4671
 CYCLE:   143 TIME:   0.039 TIME LEFT:  2.00D  GRAD.:     5.916 HEAT: -152.5185
 CYCLE:   144 TIME:   0.039 TIME LEFT:  2.00D  GRAD.:     3.650 HEAT: -152.5282
 CYCLE:   145 TIME:   0.039 TIME LEFT:  2.00D  GRAD.:     4.047 HEAT: -152.5413
 CYCLE:   146 TIME:   0.047 TIME LEFT:  2.00D  GRAD.:     7.658 HEAT: -152.5560
 CYCLE:   147 TIME:   0.039 TIME LEFT:  2.00D  GRAD.:     7.918 HEAT: -152.5726
 CYCLE:   148 TIME:   0.047 TIME LEFT:  2.00D  GRAD.:    16.102 HEAT: -152.5641
 CYCLE:   149 TIME:   0.047 TIME LEFT:  2.00D  GRAD.:     4.171 HEAT: -152.6107
 CYCLE:   150 TIME:   0.039 TIME LEFT:  2.00D  GRAD.:     3.098 HEAT: -152.6162
 CYCLE:   151 TIME:   0.039 TIME LEFT:  2.00D  GRAD.:     5.657 HEAT: -152.6206
 CYCLE:   152 TIME:   0.039 TIME LEFT:  2.00D  GRAD.:     4.251 HEAT: -152.6335
 CYCLE:   153 TIME:   0.047 TIME LEFT:  2.00D  GRAD.:     6.087 HEAT: -152.6512
 CYCLE:   154 TIME:   0.039 TIME LEFT:  2.00D  GRAD.:     7.033 HEAT: -152.6647
 CYCLE:   155 TIME:   0.047 TIME LEFT:  2.00D  GRAD.:    16.881 HEAT: -152.6241
 CYCLE:   156 TIME:   0.047 TIME LEFT:  2.00D  GRAD.:    12.959 HEAT: -152.6659
 CYCLE:   157 TIME:   0.039 TIME LEFT:  2.00D  GRAD.:     6.535 HEAT: -152.6954
 CYCLE:   158 TIME:   0.039 TIME LEFT:  2.00D  GRAD.:     3.068 HEAT: -152.7028
 CYCLE:   159 TIME:   0.047 TIME LEFT:  2.00D  GRAD.:     3.610 HEAT: -152.7083
 CYCLE:   160 TIME:   0.039 TIME LEFT:  2.00D  GRAD.:     8.350 HEAT: -152.7312
 CYCLE:   161 TIME:   0.047 TIME LEFT:  2.00D  GRAD.:     6.871 HEAT: -152.7543
 CYCLE:   162 TIME:   0.047 TIME LEFT:  2.00D  GRAD.:     3.965 HEAT: -152.7723
 CYCLE:   163 TIME:   0.039 TIME LEFT:  2.00D  GRAD.:     4.522 HEAT: -152.7928
 CYCLE:   164 TIME:   0.047 TIME LEFT:  2.00D  GRAD.:     9.105 HEAT: -152.8087
 CYCLE:   165 TIME:   0.039 TIME LEFT:  2.00D  GRAD.:     8.329 HEAT: -152.8298
 CYCLE:   166 TIME:   0.047 TIME LEFT:  2.00D  GRAD.:    12.191 HEAT: -152.8677
 CYCLE:   167 TIME:   0.039 TIME LEFT:  2.00D  GRAD.:     6.155 HEAT: -152.9063
 CYCLE:   168 TIME:   0.039 TIME LEFT:  2.00D  GRAD.:     4.921 HEAT: -152.9252
 CYCLE:   169 TIME:   0.039 TIME LEFT:  2.00D  GRAD.:     6.740 HEAT: -152.9542
 CYCLE:   170 TIME:   0.039 TIME LEFT:  2.00D  GRAD.:     9.393 HEAT: -152.9824
 CYCLE:   171 TIME:   0.047 TIME LEFT:  2.00D  GRAD.:     9.171 HEAT: -153.0213
 CYCLE:   172 TIME:   0.039 TIME LEFT:  2.00D  GRAD.:     8.196 HEAT: -153.0635
 CYCLE:   173 TIME:   0.047 TIME LEFT:  2.00D  GRAD.:    14.378 HEAT: -153.0783
 CYCLE:   174 TIME:   0.039 TIME LEFT:  2.00D  GRAD.:    22.387 HEAT: -153.0710
 CYCLE:   175 TIME:   0.047 TIME LEFT:  2.00D  GRAD.:     9.949 HEAT: -153.1597
 CYCLE:   176 TIME:   0.047 TIME LEFT:  2.00D  GRAD.:     7.699 HEAT: -153.1748
 CYCLE:   177 TIME:   0.039 TIME LEFT:  2.00D  GRAD.:    13.262 HEAT: -153.1873
 CYCLE:   178 TIME:   0.047 TIME LEFT:  2.00D  GRAD.:    10.032 HEAT: -153.2207
 CYCLE:   179 TIME:   0.039 TIME LEFT:  2.00D  GRAD.:     4.737 HEAT: -153.2495
 CYCLE:   180 TIME:   0.047 TIME LEFT:  2.00D  GRAD.:     4.875 HEAT: -153.2669
 CYCLE:   181 TIME:   0.039 TIME LEFT:  2.00D  GRAD.:     5.631 HEAT: -153.2926
 CYCLE:   182 TIME:   0.039 TIME LEFT:  2.00D  GRAD.:     7.214 HEAT: -153.3535
 CYCLE:   183 TIME:   0.047 TIME LEFT:  2.00D  GRAD.:    28.282 HEAT: -153.2897
 CYCLE:   184 TIME:   0.039 TIME LEFT:  2.00D  GRAD.:     5.911 HEAT: -153.3869
 CYCLE:   185 TIME:   0.039 TIME LEFT:  2.00D  GRAD.:     4.202 HEAT: -153.3975
 CYCLE:   186 TIME:   0.039 TIME LEFT:  2.00D  GRAD.:     3.800 HEAT: -153.4262
 CYCLE:   187 TIME:   0.039 TIME LEFT:  2.00D  GRAD.:     8.278 HEAT: -153.4508
 CYCLE:   188 TIME:   0.047 TIME LEFT:  2.00D  GRAD.:     8.243 HEAT: -153.4584
 CYCLE:   189 TIME:   0.039 TIME LEFT:  2.00D  GRAD.:     3.539 HEAT: -153.4743
 CYCLE:   190 TIME:   0.039 TIME LEFT:  2.00D  GRAD.:     2.866 HEAT: -153.4819
 CYCLE:   191 TIME:   0.039 TIME LEFT:  2.00D  GRAD.:     3.667 HEAT: -153.4926
 CYCLE:   192 TIME:   0.039 TIME LEFT:  2.00D  GRAD.:     5.843 HEAT: -153.5060
 CYCLE:   193 TIME:   0.039 TIME LEFT:  2.00D  GRAD.:     7.862 HEAT: -153.5172
 CYCLE:   194 TIME:   0.039 TIME LEFT:  2.00D  GRAD.:     4.314 HEAT: -153.5334
 CYCLE:   195 TIME:   0.047 TIME LEFT:  2.00D  GRAD.:     3.340 HEAT: -153.5434
 CYCLE:   196 TIME:   0.039 TIME LEFT:  2.00D  GRAD.:     4.771 HEAT: -153.5523
 CYCLE:   197 TIME:   0.039 TIME LEFT:  2.00D  GRAD.:     6.000 HEAT: -153.5628
 CYCLE:   198 TIME:   0.039 TIME LEFT:  2.00D  GRAD.:    10.090 HEAT: -153.5749
 CYCLE:   199 TIME:   0.039 TIME LEFT:  2.00D  GRAD.:     4.042 HEAT: -153.5941
 CYCLE:   200 TIME:   0.039 TIME LEFT:  2.00D  GRAD.:     3.060 HEAT: -153.6013
 CYCLE:   201 TIME:   0.039 TIME LEFT:  2.00D  GRAD.:     3.119 HEAT: -153.6092
 CYCLE:   202 TIME:   0.047 TIME LEFT:  2.00D  GRAD.:     8.516 HEAT: -153.6187
 CYCLE:   203 TIME:   0.039 TIME LEFT:  2.00D  GRAD.:     3.913 HEAT: -153.6315
 CYCLE:   204 TIME:   0.039 TIME LEFT:  2.00D  GRAD.:     3.021 HEAT: -153.6394
 CYCLE:   205 TIME:   0.039 TIME LEFT:  2.00D  GRAD.:     3.218 HEAT: -153.6474
 CYCLE:   206 TIME:   0.039 TIME LEFT:  2.00D  GRAD.:     6.320 HEAT: -153.6564
 CYCLE:   207 TIME:   0.047 TIME LEFT:  2.00D  GRAD.:     3.603 HEAT: -153.6671
 CYCLE:   208 TIME:   0.039 TIME LEFT:  2.00D  GRAD.:     2.612 HEAT: -153.6754
 CYCLE:   209 TIME:   0.039 TIME LEFT:  2.00D  GRAD.:     3.426 HEAT: -153.6834
 CYCLE:   210 TIME:   0.039 TIME LEFT:  2.00D  GRAD.:     4.588 HEAT: -153.6919
 CYCLE:   211 TIME:   0.039 TIME LEFT:  2.00D  GRAD.:     3.740 HEAT: -153.7003
 CYCLE:   212 TIME:   0.039 TIME LEFT:  2.00D  GRAD.:     2.917 HEAT: -153.7063
 CYCLE:   213 TIME:   0.039 TIME LEFT:  2.00D  GRAD.:     2.554 HEAT: -153.7104
 CYCLE:   214 TIME:   0.039 TIME LEFT:  2.00D  GRAD.:     2.361 HEAT: -153.7154
 CYCLE:   215 TIME:   0.047 TIME LEFT:  2.00D  GRAD.:     5.593 HEAT: -153.7205
 CYCLE:   216 TIME:   0.039 TIME LEFT:  2.00D  GRAD.:     2.397 HEAT: -153.7271
 CYCLE:   217 TIME:   0.039 TIME LEFT:  2.00D  GRAD.:     1.950 HEAT: -153.7296
 CYCLE:   218 TIME:   0.039 TIME LEFT:  2.00D  GRAD.:     2.267 HEAT: -153.7335
 CYCLE:   219 TIME:   0.047 TIME LEFT:  2.00D  GRAD.:     4.590 HEAT: -153.7392
 CYCLE:   220 TIME:   0.039 TIME LEFT:  2.00D  GRAD.:     2.676 HEAT: -153.7448
 CYCLE:   221 TIME:   0.039 TIME LEFT:  2.00D  GRAD.:     2.046 HEAT: -153.7491
 CYCLE:   222 TIME:   0.047 TIME LEFT:  2.00D  GRAD.:     2.617 HEAT: -153.7530
 CYCLE:   223 TIME:   0.039 TIME LEFT:  2.00D  GRAD.:     5.023 HEAT: -153.7587
 CYCLE:   224 TIME:   0.039 TIME LEFT:  2.00D  GRAD.:     3.260 HEAT: -153.7651
 CYCLE:   225 TIME:   0.039 TIME LEFT:  2.00D  GRAD.:     2.284 HEAT: -153.7709
 CYCLE:   226 TIME:   0.047 TIME LEFT:  2.00D  GRAD.:     2.844 HEAT: -153.7745
 CYCLE:   227 TIME:   0.039 TIME LEFT:  2.00D  GRAD.:     3.607 HEAT: -153.7792
 CYCLE:   228 TIME:   0.039 TIME LEFT:  2.00D  GRAD.:     2.354 HEAT: -153.7845
 CYCLE:   229 TIME:   0.039 TIME LEFT:  2.00D  GRAD.:     2.982 HEAT: -153.7886
 CYCLE:   230 TIME:   0.039 TIME LEFT:  2.00D  GRAD.:     2.463 HEAT: -153.7921
 CYCLE:   231 TIME:   0.039 TIME LEFT:  2.00D  GRAD.:     2.051 HEAT: -153.7947
 CYCLE:   232 TIME:   0.047 TIME LEFT:  2.00D  GRAD.:     2.190 HEAT: -153.7982
 CYCLE:   233 TIME:   0.039 TIME LEFT:  2.00D  GRAD.:     7.121 HEAT: -153.7945
 CYCLE:   234 TIME:   0.039 TIME LEFT:  2.00D  GRAD.:     1.840 HEAT: -153.8021
 CYCLE:   235 TIME:   0.039 TIME LEFT:  2.00D  GRAD.:     0.956 HEAT: -153.8023

 -------------------------------------------------------------------------------
 PM7 XYZ

 Lipophilicity_1938 - geometry optimisation


     HERBERTS TEST WAS SATISFIED IN BFGS                      
     SCF FIELD WAS ACHIEVED                                   


                              PM7 CALCULATION
                                                       MOPAC v23.0.3 Linux
                                                       Fri Jul 25 18:39:56 2025




          FINAL HEAT OF FORMATION =       -153.80232 KCAL/MOL =    -643.50891 KJ/MOL


          COSMO AREA              =        402.84 SQUARE ANGSTROMS
          COSMO VOLUME            =        473.29 CUBIC ANGSTROMS

          GRADIENT NORM           =          0.95558          =       0.13252 PER ATOM
          IONIZATION POTENTIAL    =          8.689234 EV
          HOMO LUMO ENERGIES (EV) =         -8.689 -0.770
          NO. OF FILLED LEVELS    =         82
          MOLECULAR WEIGHT        =        432.4075         POINT GROUP:  C1  

          MOLECULAR DIMENSIONS (Angstroms)

            Atom       Atom       Distance
            H    50    H    32    16.28945
            H    52    H    37     7.47231
            H    36    H    42     3.83653


          SCF CALCULATIONS        =        236

          WALL-CLOCK TIME         =     10.367 SECONDS
          COMPUTATION TIME        =          3 MINUTES AND 26.207 SECONDS




   ATOM   CHEMICAL          X               Y               Z
  NUMBER   SYMBOL      (ANGSTROMS)     (ANGSTROMS)     (ANGSTROMS)

     1       O         -7.24898573  *   1.57089213  *   1.59540351  *
     2       C         -6.39558233  *   0.90781960  *   2.45226832  *
     3       O         -6.81847789  *   0.50213747  *   3.49809745  *
     4       C         -5.08175544  *   0.80234643  *   1.83508760  *
     5       C         -4.96128949  *   0.80138809  *   0.47371753  *
     6       N         -3.74995523  *   0.66801691  *  -0.15718312  *
     7       C         -3.71660338  *   0.69095584  *  -1.60732506  *
     8       C         -3.01726565  *   1.83854493  *  -2.31996010  *
     9       C         -4.51947396  *   1.74988853  *  -2.34419578  *
    10       C         -2.56995989  *   0.45859531  *   0.58209319  *
    11       C         -1.34556079  *   0.23902405  *  -0.06989313  *
    12       C         -0.17439748  *  -0.02336893  *   0.65995258  *
    13       N          1.00428440  *  -0.39107950  *   0.03131150  *
    14       C          1.00160738  *  -0.58326400  *  -1.42813836  *
    15       C          2.24111404  *  -1.40455601  *  -1.83670108  *
    16       N          3.49620302  *  -0.71578243  *  -1.46191395  *
    17       C          3.30991079  *   0.40135533  *  -0.53321533  *
    18       C          2.30180352  *   0.04035319  *   0.58483024  *
    19       C          4.62887546  *  -1.51480348  *  -1.47862043  *
    20       O          4.56543405  *  -2.62730571  *  -1.96894459  *
    21       C          5.96819284  *  -0.97179408  *  -1.01469368  *
    22       C          6.54755335  *  -1.90678028  *   0.04189772  *
    23       N          5.95746184  *  -1.67296757  *   1.39108913  *
    24       O          6.28744474  *  -2.43233092  *   2.27994258  *
    25       O          5.18644336  *  -0.73974000  *   1.53598726  *
    26       C         -0.29003110  *  -0.01977763  *   2.08220209  *
    27       F          0.76658715  *  -0.30309453  *   2.82994772  *
    28       C         -1.48185301  *   0.22759838  *   2.72914339  *
    29       C         -2.64393120  *   0.46767058  *   1.98360076  *
    30       C         -3.90834784  *   0.71407781  *   2.70251316  *
    31       O         -3.94190516  *   0.84880554  *   3.90338703  *
    32       H         -8.15583508  *   1.68026616  *   1.95942295  *
    33       H         -5.84636457  *   0.89984990  *  -0.18003949  *
    34       H         -3.64581740  *  -0.32574197  *  -2.02761831  *
    35       H         -2.44172975  *   1.63808585  *  -3.21967791  *
    36       H         -2.53535426  *   2.62343009  *  -1.73712092  *
    37       H         -5.03979387  *   1.48031013  *  -3.26043556  *
    38       H         -5.10550613  *   2.48352487  *  -1.79001391  *
    39       H         -1.30726552  *   0.28316844  *  -1.15190538  *
    40       H          0.09119261  *  -1.16163611  *  -1.71768737  *
    41       H          0.97203560  *   0.38547220  *  -1.97493676  *
    42       H          2.19899486  *  -2.41749730  *  -1.36409934  *
    43       H          2.25107374  *  -1.56585214  *  -2.93891404  *
    44       H          2.95229547  *   1.28162953  *  -1.11702999  *
    45       H          4.27288791  *   0.70730687  *  -0.06357600  *
    46       H          2.19358346  *   0.92052361  *   1.25697260  *
    47       H          2.71000480  *  -0.80547461  *   1.19523410  *
    48       H          5.91896114  *   0.07493984  *  -0.65340225  *
    49       H          6.64312812  *  -0.94164767  *  -1.90207038  *
    50       H          7.65377852  *  -1.78928282  *   0.12516164  *
    51       H          6.37138529  *  -2.98095697  *  -0.23761821  *
    52       H         -1.54918269  *   0.22750048  *   3.82765748  *

                             CARTESIAN COORDINATES

   1    O       -7.248985731     1.570892134     1.595403512
   2    C       -6.395582326     0.907819600     2.452268319
   3    O       -6.818477890     0.502137469     3.498097448
   4    C       -5.081755443     0.802346432     1.835087601
   5    C       -4.961289491     0.801388087     0.473717526
   6    N       -3.749955235     0.668016915    -0.157183121
   7    C       -3.716603378     0.690955835    -1.607325061
   8    C       -3.017265653     1.838544930    -2.319960095
   9    C       -4.519473959     1.749888532    -2.344195776
  10    C       -2.569959887     0.458595313     0.582093186
  11    C       -1.345560793     0.239024053    -0.069893130
  12    C       -0.174397481    -0.023368931     0.659952577
  13    N        1.004284403    -0.391079501     0.031311503
  14    C        1.001607381    -0.583263997    -1.428138363
  15    C        2.241114037    -1.404556012    -1.836701078
  16    N        3.496203023    -0.715782431    -1.461913954
  17    C        3.309910788     0.401355331    -0.533215332
  18    C        2.301803516     0.040353188     0.584830236
  19    C        4.628875459    -1.514803480    -1.478620431
  20    O        4.565434051    -2.627305713    -1.968944590
  21    C        5.968192842    -0.971794076    -1.014693683
  22    C        6.547553354    -1.906780279     0.041897720
  23    N        5.957461835    -1.672967570     1.391089128
  24    O        6.287444741    -2.432330919     2.279942582
  25    O        5.186443355    -0.739739999     1.535987260
  26    C       -0.290031100    -0.019777627     2.082202089
  27    F        0.766587146    -0.303094529     2.829947723
  28    C       -1.481853008     0.227598383     2.729143393
  29    C       -2.643931202     0.467670578     1.983600763
  30    C       -3.908347839     0.714077810     2.702513161
  31    O       -3.941905158     0.848805543     3.903387026
  32    H       -8.155835084     1.680266160     1.959422945
  33    H       -5.846364571     0.899849904    -0.180039492
  34    H       -3.645817403    -0.325741973    -2.027618306
  35    H       -2.441729755     1.638085851    -3.219677910
  36    H       -2.535354258     2.623430094    -1.737120925
  37    H       -5.039793868     1.480310126    -3.260435557
  38    H       -5.105506130     2.483524866    -1.790013906
  39    H       -1.307265517     0.283168441    -1.151905378
  40    H        0.091192614    -1.161636108    -1.717687374
  41    H        0.972035601     0.385472199    -1.974936764
  42    H        2.198994861    -2.417497301    -1.364099336
  43    H        2.251073735    -1.565852141    -2.938914039
  44    H        2.952295466     1.281629533    -1.117029987
  45    H        4.272887913     0.707306875    -0.063576004
  46    H        2.193583462     0.920523607     1.256972597
  47    H        2.710004800    -0.805474615     1.195234097
  48    H        5.918961135     0.074939839    -0.653402253
  49    H        6.643128119    -0.941647674    -1.902070382
  50    H        7.653778516    -1.789282825     0.125161640
  51    H        6.371385294    -2.980956973    -0.237618214
  52    H       -1.549182692     0.227500483     3.827657482


           Empirical Formula: C20 H21 N4 O6 F  =    52 atoms



      MOLECULAR POINT GROUP   :   C1  


                  EIGENVALUES  
 -41.09722 -38.20207 -37.66340 -37.55245 -36.28251 -31.39396 -31.15136 -31.10816
 -30.88661 -30.67685 -30.29138 -29.36751 -29.15404 -28.11705 -27.53630 -27.12567
 -26.31985 -25.79680 -25.55715 -23.74809 -23.47777 -22.70113 -22.51108 -22.27100
 -21.76194 -21.00093 -20.65402 -20.35586 -19.55402 -19.07092 -18.88018 -18.62226
 -18.60050 -18.19603 -18.06525 -17.99039 -17.72846 -17.54080 -17.16058 -16.86746
 -16.75655 -16.71154 -16.27241 -16.00377 -15.95491 -15.76899 -15.55404 -15.21883
 -15.15781 -14.98236 -14.84883 -14.79515 -14.67491 -14.41822 -14.27334 -14.19081
 -13.92202 -13.81296 -13.70790 -13.55569 -13.47210 -13.44368 -13.32988 -13.30766
 -13.19631 -13.09144 -12.84545 -12.56139 -12.47658 -12.32519 -11.76165 -11.74077
 -11.69449 -11.42869 -11.06032 -10.99885 -10.79386 -10.52260  -9.93072  -9.85775
  -9.15358  -8.68923  -0.77050  -0.56488  -0.36079   0.15278   0.25513   0.48535
   0.72313   1.09662   1.14104   1.26567   1.45089   1.77847   2.28554   2.38216
   2.50177   2.55246   2.84032   2.86297   2.97470   3.08857   3.15943   3.17318
   3.36963   3.50270   3.54718   3.57149   3.62425   3.90839   3.96287   4.01319
   4.15901   4.18412   4.25199   4.28415   4.35504   4.40843   4.42722   4.52858
   4.59163   4.64976   4.67479   4.73869   4.77961   4.84499   4.89224   4.99231
   5.00139   5.02406   5.06017   5.08048   5.20756   5.23341   5.29796   5.35514
   5.39768   5.42989   5.47611   5.57813   5.65148   5.71941   5.72873   5.96895
   5.97384


              NET ATOMIC CHARGES AND DIPOLE CONTRIBUTIONS

  ATOM NO.   TYPE          CHARGE      No. of ELECS.   s-Pop       p-Pop       
    1          O          -0.615637        6.6156     1.84162     4.77402
    2          C           0.680632        3.3194     1.09236     2.22701
    3          O          -0.454016        6.4540     1.87678     4.57724
    4          C          -0.407576        4.4076     1.06345     3.34412
    5          C           0.191114        3.8089     1.09662     2.71226
    6          N          -0.325976        5.3260     1.52019     3.80578
    7          C           0.004749        3.9953     1.04889     2.94637
    8          C          -0.320260        4.3203     1.05846     3.26180
    9          C          -0.319413        4.3194     1.05852     3.26089
   10          C           0.274719        3.7253     1.05594     2.66934
   11          C          -0.405436        4.4054     1.06205     3.34338
   12          C           0.261091        3.7389     1.06032     2.67859
   13          N          -0.412621        5.4126     1.57754     3.83508
   14          C          -0.099684        4.0997     1.07175     3.02794
   15          C          -0.084731        4.0847     1.07338     3.01135
   16          N          -0.478224        5.4782     1.60007     3.87815
   17          C          -0.100419        4.1004     1.07261     3.02781
   18          C          -0.096075        4.0961     1.07777     3.01830
   19          C           0.569116        3.4309     1.08618     2.34471
   20          O          -0.536918        6.5369     1.88163     4.65528
   21          C          -0.359255        4.3593     1.06955     3.28971
   22          C          -0.228952        4.2290     1.09299     3.13596
   23          N           0.613831        4.3862     1.46332     2.92285
   24          O          -0.370782        6.3708     1.94072     4.43007
   25          O          -0.431577        6.4316     1.94016     4.49142
   26          C           0.009356        3.9906     1.08188     2.90876
   27          F          -0.148715        7.1487     1.96636     5.18235
   28          C          -0.034032        4.0340     1.09128     2.94275
   29          C          -0.274625        4.2746     1.06646     3.20816
   30          C           0.514136        3.4859     1.07546     2.41041
   31          O          -0.438299        6.4383     1.88033     4.55797
   32          H           0.355540        0.6445     0.64446
   33          H           0.187849        0.8122     0.81215
   34          H           0.174599        0.8254     0.82540
   35          H           0.163718        0.8363     0.83628
   36          H           0.178288        0.8217     0.82171
   37          H           0.167129        0.8329     0.83287
   38          H           0.177680        0.8223     0.82232
   39          H           0.171814        0.8282     0.82819
   40          H           0.157818        0.8422     0.84218
   41          H           0.136237        0.8638     0.86376
   42          H           0.170154        0.8298     0.82985
   43          H           0.155891        0.8441     0.84411
   44          H           0.150606        0.8494     0.84939
   45          H           0.164350        0.8357     0.83565
   46          H           0.158126        0.8419     0.84187
   47          H           0.181333        0.8187     0.81867
   48          H           0.182432        0.8176     0.81757
   49          H           0.188652        0.8113     0.81135
   50          H           0.185907        0.8141     0.81409
   51          H           0.212221        0.7878     0.78778
   52          H           0.204131        0.7959     0.79587
 DIPOLE           X         Y         Z       TOTAL
 POINT-CHG.     4.809     2.887   -11.680    12.957
 HYBRID        -0.264     0.253     0.184     0.409
 SUM            4.545     3.140   -11.496    12.754


          ATOMIC ORBITAL ELECTRON POPULATIONS

     Atom    s        px        py        pz   
    1  O   1.84162   1.39703   1.78173   1.59525
    2  C   1.09236   0.80031   0.68043   0.74626
    3  O   1.87678   1.73939   1.51468   1.32317
    4  C   1.06345   1.04396   1.30026   0.99991
    5  C   1.09662   0.88697   0.83382   0.99147
    6  N   1.52019   1.11593   1.59285   1.09700
    7  C   1.04889   1.13060   1.02323   0.79254
    8  C   1.05846   1.01922   1.09707   1.14551
    9  C   1.05852   1.01475   1.09962   1.14653
   10  C   1.05594   0.83862   0.90763   0.92309
   11  C   1.06205   0.99046   1.24734   1.10559
   12  C   1.06032   0.86767   0.87061   0.94031
   13  N   1.57754   1.08252   1.61710   1.13547
   14  C   1.07175   1.07234   1.11070   0.84490
   15  C   1.07338   0.83801   1.04597   1.12737
   16  N   1.60007   1.13481   1.25310   1.49024
   17  C   1.07261   1.10715   0.94488   0.97577
   18  C   1.07777   0.84957   1.14724   1.02149
   19  C   1.08618   0.82447   0.77536   0.74487
   20  O   1.88163   1.86982   1.28963   1.49584
   21  C   1.06955   1.07533   1.11233   1.10204
   22  C   1.09299   1.10954   1.14174   0.88468
   23  N   1.46332   0.95542   0.95700   1.01043
   24  O   1.94072   1.61275   1.39689   1.42043
   25  O   1.94016   1.34643   1.24853   1.89645
   26  C   1.08188   0.88442   1.12570   0.89864
   27  F   1.96636   1.50763   1.93774   1.73698
   28  C   1.09128   0.94434   0.89718   1.10123
   29  C   1.06646   1.04924   1.18833   0.97059
   30  C   1.07546   0.86362   0.71294   0.83384
   31  O   1.88033   1.87772   1.44063   1.23962
   32  H   0.64446
   33  H   0.81215
   34  H   0.82540
   35  H   0.83628
   36  H   0.82171
   37  H   0.83287
   38  H   0.82232
   39  H   0.82819
   40  H   0.84218
   41  H   0.86376
   42  H   0.82985
   43  H   0.84411
   44  H   0.84939
   45  H   0.83565
   46  H   0.84187
   47  H   0.81867
   48  H   0.81757
   49  H   0.81135
   50  H   0.81409
   51  H   0.78778
   52  H   0.79587

 **********************
 *                    *
 * JOB ENDED NORMALLY *
 *                    *
 **********************



 TOTAL JOB TIME:            10.37 SECONDS

 == MOPAC DONE ==
