 *******************************************************************************
 **                                                                           **
 **                              MOPAC v23.0.3                                **
 **                                                                           **
 *******************************************************************************
 **          Digital Object Identifier (DOI): 10.5281/zenodo.6511958          **
 **    Visit the DOI location for information on how to cite this program.    **
 *******************************************************************************

                              PM7 CALCULATION RESULTS

 *******************************************************************************
 *  CALCULATION DONE:                                Fri Jul 25 17:12:52 2025  *
 *  PM7        - The PM7 Hamiltonian to be used
 *  XYZ        - CARTESIAN COORDINATE SYSTEM TO BE USED
 *  T=         - A TIME OF 172800.0 SECONDS REQUESTED
 *  DUMP=N     - RESTART FILE WRITTEN EVERY 7200.0 SECONDS REQUESTED
 *******************************************************************************
PM7 XYZ

 Lipophilicity_1449 - geometry optimisation
   ATOM   CHEMICAL          X               Y               Z
  NUMBER   SYMBOL      (ANGSTROMS)     (ANGSTROMS)     (ANGSTROMS)

     1       N         -4.89592300  *  -1.92592300  *  -0.96273800  *
     2       C         -4.71982600  *  -0.68537800  *  -0.20335600  *
     3       C         -5.70017700  *   0.40340500  *  -0.66871700  *
     4       C         -6.45300000  *   0.29835800  *   0.64906200  *
     5       C         -5.45810000  *  -0.74070300  *   1.14385700  *
     6       C         -3.25620800  *  -0.26209300  *  -0.13120300  *
     7       C         -2.41527700  *  -0.76944000  *   0.87650000  *
     8       C         -1.05729000  *  -0.44295800  *   0.90163700  *
     9       C         -0.50041300  *   0.35763200  *  -0.10796000  *
    10       C         -1.32790100  *   0.84381900  *  -1.12951300  *
    11       C         -2.68651500  *   0.51803500  *  -1.15463500  *
    12       C          0.93717000  *   0.70908800  *  -0.09581500  *
    13       N          1.27195800  *   2.02384200  *  -0.22229400  *
    14       C          2.55760300  *   2.45744400  *  -0.17476500  *
    15       C          2.84676100  *   3.83234500  *  -0.30917300  *
    16       C          4.17967900  *   4.26813800  *  -0.25138100  *
    17       N          5.14604700  *   3.33415600  *  -0.06554900  *
    18       C          6.47949600  *   3.42399900  *   0.03074400  *
    19       O          7.13367700  *   4.49838200  *  -0.04037300  *
    20       N          7.03013000  *   2.20862700  *   0.21396900  *
    21       N          6.04798700  *   1.31289600  *   0.23794100  *
    22       C          4.90787600  *   2.01886800  *   0.06613100  *
    23       C          3.60209600  *   1.52352200  *   0.01802200  *
    24       C          3.29548200  *   0.16575600  *   0.13788500  *
    25       C          1.96015800  *  -0.26296400  *   0.06641500  *
    26       C          1.67541400  *  -1.71794200  *   0.10362800  *
    27       C          0.93352700  *  -2.32736500  *  -0.92387700  *
    28       C          0.66294300  *  -3.69818800  *  -0.88044800  *
    29       C          1.13821700  *  -4.47265400  *   0.18099900  *
    30       C          1.88797700  *  -3.87807800  *   1.19936300  *
    31       C          2.15979100  *  -2.50704200  *   1.16100900  *
    32       H         -4.32384200  *  -2.67671900  *  -0.51153700  *
    33       H         -4.51302400  *  -1.78398200  *  -1.92593900  *
    34       H         -5.24819500  *   1.41236200  *  -0.78607800  *
    35       H         -6.32586300  *   0.10006200  *  -1.53708400  *
    36       H         -6.41915300  *   1.24044100  *   1.23920300  *
    37       H         -7.47577500  *  -0.11932400  *   0.52202100  *
    38       H         -5.94033800  *  -1.72190500  *   1.34942600  *
    39       H         -4.87513600  *  -0.35025100  *   2.00629200  *
    40       H         -2.80567800  *  -1.42636100  *   1.64296600  *
    41       H         -0.44020900  *  -0.82016000  *   1.70751900  *
    42       H         -0.91524100  *   1.45353600  *  -1.92412200  *
    43       H         -3.28896900  *   0.86681900  *  -1.98339400  *
    44       H          2.04954800  *   4.55038200  *  -0.45527800  *
    45       H          4.42791100  *   5.31717000  *  -0.35191200  *
    46       H          8.04436500  *   1.98513100  *   0.32049200  *
    47       H          4.09161900  *  -0.56024600  *   0.25758300  *
    48       H          0.56781500  *  -1.74237700  *  -1.75871100  *
    49       H          0.08685200  *  -4.16059900  *  -1.67145300  *
    50       H          0.92803200  *  -5.53387900  *   0.21293000  *
    51       H          2.25717600  *  -4.47945400  *   2.02000900  *
    52       H          2.73474700  *  -2.05823300  *   1.96170100  *



          CARTESIAN COORDINATES 

    NO.       ATOM           X           Y           Z

     1         N         -4.8959     -1.9259     -0.9627
     2         C         -4.7198     -0.6854     -0.2034
     3         C         -5.7002      0.4034     -0.6687
     4         C         -6.4530      0.2984      0.6491
     5         C         -5.4581     -0.7407      1.1439
     6         C         -3.2562     -0.2621     -0.1312
     7         C         -2.4153     -0.7694      0.8765
     8         C         -1.0573     -0.4430      0.9016
     9         C         -0.5004      0.3576     -0.1080
    10         C         -1.3279      0.8438     -1.1295
    11         C         -2.6865      0.5180     -1.1546
    12         C          0.9372      0.7091     -0.0958
    13         N          1.2720      2.0238     -0.2223
    14         C          2.5576      2.4574     -0.1748
    15         C          2.8468      3.8323     -0.3092
    16         C          4.1797      4.2681     -0.2514
    17         N          5.1460      3.3342     -0.0655
    18         C          6.4795      3.4240      0.0307
    19         O          7.1337      4.4984     -0.0404
    20         N          7.0301      2.2086      0.2140
    21         N          6.0480      1.3129      0.2379
    22         C          4.9079      2.0189      0.0661
    23         C          3.6021      1.5235      0.0180
    24         C          3.2955      0.1658      0.1379
    25         C          1.9602     -0.2630      0.0664
    26         C          1.6754     -1.7179      0.1036
    27         C          0.9335     -2.3274     -0.9239
    28         C          0.6629     -3.6982     -0.8804
    29         C          1.1382     -4.4727      0.1810
    30         C          1.8880     -3.8781      1.1994
    31         C          2.1598     -2.5070      1.1610
    32         H         -4.3238     -2.6767     -0.5115
    33         H         -4.5130     -1.7840     -1.9259
    34         H         -5.2482      1.4124     -0.7861
    35         H         -6.3259      0.1001     -1.5371
    36         H         -6.4192      1.2404      1.2392
    37         H         -7.4758     -0.1193      0.5220
    38         H         -5.9403     -1.7219      1.3494
    39         H         -4.8751     -0.3503      2.0063
    40         H         -2.8057     -1.4264      1.6430
    41         H         -0.4402     -0.8202      1.7075
    42         H         -0.9152      1.4535     -1.9241
    43         H         -3.2890      0.8668     -1.9834
    44         H          2.0495      4.5504     -0.4553
    45         H          4.4279      5.3172     -0.3519
    46         H          8.0444      1.9851      0.3205
    47         H          4.0916     -0.5602      0.2576
    48         H          0.5678     -1.7424     -1.7587
    49         H          0.0869     -4.1606     -1.6715
    50         H          0.9280     -5.5339      0.2129
    51         H          2.2572     -4.4795      2.0200
    52         H          2.7347     -2.0582      1.9617

 General Reference for PM7:
 "Optimization of Parameters for Semiempirical Methods VI: More Modifications to the 
 NDDO Approximations and Re-optimization of Parameters", J. J. P. Stewart, J. Mol. Mod., 1:32, 19 (2013)
 https://link.springer.com/article/10.1007/s00894-012-1667-x

           Empirical Formula: C25 H21 N5 O  =    52 atoms



      MOLECULAR POINT GROUP   :   C1  


      RHF CALCULATION, NO. OF DOUBLY OCCUPIED LEVELS = 76


          Geometry optimization using L-BFGS
 CYCLE:     1 TIME:   0.078 TIME LEFT:  2.00D  GRAD.:   345.683 HEAT:  135.1601
 CYCLE:     2 TIME:   0.039 TIME LEFT:  2.00D  GRAD.:   335.757 HEAT:  133.9822
 CYCLE:     3 TIME:   0.043 TIME LEFT:  2.00D  GRAD.:   106.666 HEAT:  111.0717
 CYCLE:     4 TIME:   0.051 TIME LEFT:  2.00D  GRAD.:   335.820 HEAT:  133.9771
 CYCLE:     5 TIME:   0.047 TIME LEFT:  2.00D  GRAD.:   106.643 HEAT:  111.0700
 CYCLE:     6 TIME:   0.043 TIME LEFT:  2.00D  GRAD.:    65.433 HEAT:  108.2576
 CYCLE:     7 TIME:   0.039 TIME LEFT:  2.00D  GRAD.:    40.725 HEAT:  105.4464
 CYCLE:     8 TIME:   0.043 TIME LEFT:  2.00D  GRAD.:    50.271 HEAT:  104.3514
 CYCLE:     9 TIME:   0.039 TIME LEFT:  2.00D  GRAD.:    26.456 HEAT:  103.5675
 CYCLE:    10 TIME:   0.039 TIME LEFT:  2.00D  GRAD.:    18.952 HEAT:  103.1979
 CYCLE:    11 TIME:   0.039 TIME LEFT:  2.00D  GRAD.:    13.833 HEAT:  102.8558
 CYCLE:    12 TIME:   0.043 TIME LEFT:  2.00D  GRAD.:    27.011 HEAT:  102.7943
 CYCLE:    13 TIME:   0.039 TIME LEFT:  2.00D  GRAD.:     8.335 HEAT:  102.6596
 CYCLE:    14 TIME:   0.039 TIME LEFT:  2.00D  GRAD.:     6.216 HEAT:  102.6281
 CYCLE:    15 TIME:   0.059 TIME LEFT:  2.00D  GRAD.:     7.868 HEAT:  102.5803
 CYCLE:    16 TIME:   0.043 TIME LEFT:  2.00D  GRAD.:     9.097 HEAT:  102.5124
 CYCLE:    17 TIME:   0.039 TIME LEFT:  2.00D  GRAD.:    24.146 HEAT:  102.5101
 CYCLE:    18 TIME:   0.039 TIME LEFT:  2.00D  GRAD.:     6.747 HEAT:  102.4067
 CYCLE:    19 TIME:   0.039 TIME LEFT:  2.00D  GRAD.:     5.124 HEAT:  102.3811
 CYCLE:    20 TIME:   0.039 TIME LEFT:  2.00D  GRAD.:     7.199 HEAT:  102.3376
 CYCLE:    21 TIME:   0.039 TIME LEFT:  2.00D  GRAD.:    12.680 HEAT:  102.3033
 CYCLE:    22 TIME:   0.043 TIME LEFT:  2.00D  GRAD.:     6.214 HEAT:  102.2640
 CYCLE:    23 TIME:   0.039 TIME LEFT:  2.00D  GRAD.:     4.088 HEAT:  102.2424
 CYCLE:    24 TIME:   0.039 TIME LEFT:  2.00D  GRAD.:     4.750 HEAT:  102.2254
 CYCLE:    25 TIME:   0.039 TIME LEFT:  2.00D  GRAD.:     6.333 HEAT:  102.2096
 CYCLE:    26 TIME:   0.039 TIME LEFT:  2.00D  GRAD.:     4.109 HEAT:  102.1938
 CYCLE:    27 TIME:   0.039 TIME LEFT:  2.00D  GRAD.:     3.662 HEAT:  102.1774
 CYCLE:    28 TIME:   0.043 TIME LEFT:  2.00D  GRAD.:     4.883 HEAT:  102.1633
 CYCLE:    29 TIME:   0.039 TIME LEFT:  2.00D  GRAD.:     4.997 HEAT:  102.1450
 CYCLE:    30 TIME:   0.039 TIME LEFT:  2.00D  GRAD.:     3.511 HEAT:  102.1300
 CYCLE:    31 TIME:   0.039 TIME LEFT:  2.00D  GRAD.:     3.602 HEAT:  102.1204
 CYCLE:    32 TIME:   0.039 TIME LEFT:  2.00D  GRAD.:     2.823 HEAT:  102.1135
 CYCLE:    33 TIME:   0.039 TIME LEFT:  2.00D  GRAD.:     2.848 HEAT:  102.1054
 CYCLE:    34 TIME:   0.039 TIME LEFT:  2.00D  GRAD.:     4.795 HEAT:  102.0966
 CYCLE:    35 TIME:   0.039 TIME LEFT:  2.00D  GRAD.:     3.511 HEAT:  102.0884
 CYCLE:    36 TIME:   0.039 TIME LEFT:  2.00D  GRAD.:     2.605 HEAT:  102.0829
 CYCLE:    37 TIME:   0.039 TIME LEFT:  2.00D  GRAD.:     2.723 HEAT:  102.0761
 CYCLE:    38 TIME:   0.039 TIME LEFT:  2.00D  GRAD.:     3.827 HEAT:  102.0700
 CYCLE:    39 TIME:   0.043 TIME LEFT:  2.00D  GRAD.:     2.396 HEAT:  102.0637
 CYCLE:    40 TIME:   0.039 TIME LEFT:  2.00D  GRAD.:     2.357 HEAT:  102.0591
 CYCLE:    41 TIME:   0.039 TIME LEFT:  2.00D  GRAD.:     2.840 HEAT:  102.0547
 CYCLE:    42 TIME:   0.039 TIME LEFT:  2.00D  GRAD.:     2.816 HEAT:  102.0484
 CYCLE:    43 TIME:   0.039 TIME LEFT:  2.00D  GRAD.:     4.818 HEAT:  102.0411
 CYCLE:    44 TIME:   0.039 TIME LEFT:  2.00D  GRAD.:     3.034 HEAT:  102.0323
 CYCLE:    45 TIME:   0.039 TIME LEFT:  2.00D  GRAD.:     2.823 HEAT:  102.0249
 CYCLE:    46 TIME:   0.043 TIME LEFT:  2.00D  GRAD.:     3.587 HEAT:  102.0140
 CYCLE:    47 TIME:   0.090 TIME LEFT:  2.00D  GRAD.:     5.498 HEAT:  102.0044
 CYCLE:    48 TIME:   0.043 TIME LEFT:  2.00D  GRAD.:     3.596 HEAT:  101.9907
 CYCLE:    49 TIME:   0.039 TIME LEFT:  2.00D  GRAD.:     3.160 HEAT:  101.9794
 CYCLE:    50 TIME:   0.039 TIME LEFT:  2.00D  GRAD.:     3.404 HEAT:  101.9725
 CYCLE:    51 TIME:   0.043 TIME LEFT:  2.00D  GRAD.:     3.098 HEAT:  101.9656
 CYCLE:    52 TIME:   0.043 TIME LEFT:  2.00D  GRAD.:     3.548 HEAT:  101.9561
 CYCLE:    53 TIME:   0.039 TIME LEFT:  2.00D  GRAD.:     3.721 HEAT:  101.9495
 CYCLE:    54 TIME:   0.039 TIME LEFT:  2.00D  GRAD.:     2.364 HEAT:  101.9445
 CYCLE:    55 TIME:   0.039 TIME LEFT:  2.00D  GRAD.:     2.060 HEAT:  101.9397
 CYCLE:    56 TIME:   0.043 TIME LEFT:  2.00D  GRAD.:     2.730 HEAT:  101.9342
 CYCLE:    57 TIME:   0.039 TIME LEFT:  2.00D  GRAD.:     4.000 HEAT:  101.9269
 CYCLE:    58 TIME:   0.039 TIME LEFT:  2.00D  GRAD.:     2.880 HEAT:  101.9203
 CYCLE:    59 TIME:   0.043 TIME LEFT:  2.00D  GRAD.:     2.341 HEAT:  101.9144
 CYCLE:    60 TIME:   0.035 TIME LEFT:  2.00D  GRAD.:     2.647 HEAT:  101.9083
 CYCLE:    61 TIME:   0.039 TIME LEFT:  2.00D  GRAD.:     4.115 HEAT:  101.9031
 CYCLE:    62 TIME:   0.043 TIME LEFT:  2.00D  GRAD.:     2.444 HEAT:  101.8975
 CYCLE:    63 TIME:   0.039 TIME LEFT:  2.00D  GRAD.:     2.195 HEAT:  101.8924
 CYCLE:    64 TIME:   0.043 TIME LEFT:  2.00D  GRAD.:     2.526 HEAT:  101.8871
 CYCLE:    65 TIME:   0.043 TIME LEFT:  2.00D  GRAD.:     6.206 HEAT:  101.8843
 CYCLE:    66 TIME:   0.039 TIME LEFT:  2.00D  GRAD.:     1.992 HEAT:  101.8763
 CYCLE:    67 TIME:   0.039 TIME LEFT:  2.00D  GRAD.:     1.588 HEAT:  101.8736
 CYCLE:    68 TIME:   0.043 TIME LEFT:  2.00D  GRAD.:     2.092 HEAT:  101.8708
 CYCLE:    69 TIME:   0.039 TIME LEFT:  2.00D  GRAD.:     4.321 HEAT:  101.8680
 CYCLE:    70 TIME:   0.039 TIME LEFT:  2.00D  GRAD.:     1.774 HEAT:  101.8636
 CYCLE:    71 TIME:   0.039 TIME LEFT:  2.00D  GRAD.:     1.424 HEAT:  101.8612
 CYCLE:    72 TIME:   0.043 TIME LEFT:  2.00D  GRAD.:     1.628 HEAT:  101.8592
 CYCLE:    73 TIME:   0.047 TIME LEFT:  2.00D  GRAD.:     3.092 HEAT:  101.8560
 CYCLE:    74 TIME:   0.039 TIME LEFT:  2.00D  GRAD.:     1.653 HEAT:  101.8523
 CYCLE:    75 TIME:   0.039 TIME LEFT:  2.00D  GRAD.:     1.183 HEAT:  101.8506
 CYCLE:    76 TIME:   0.039 TIME LEFT:  2.00D  GRAD.:     1.206 HEAT:  101.8492
 CYCLE:    77 TIME:   0.039 TIME LEFT:  2.00D  GRAD.:     1.223 HEAT:  101.8476
 CYCLE:    78 TIME:   0.047 TIME LEFT:  2.00D  GRAD.:     1.646 HEAT:  101.8456
 CYCLE:    79 TIME:   0.039 TIME LEFT:  2.00D  GRAD.:     1.526 HEAT:  101.8437
 CYCLE:    80 TIME:   0.039 TIME LEFT:  2.00D  GRAD.:     1.532 HEAT:  101.8419
 CYCLE:    81 TIME:   0.043 TIME LEFT:  2.00D  GRAD.:     2.247 HEAT:  101.8388
 CYCLE:    82 TIME:   0.039 TIME LEFT:  2.00D  GRAD.:     2.118 HEAT:  101.8355
 CYCLE:    83 TIME:   0.043 TIME LEFT:  2.00D  GRAD.:     2.394 HEAT:  101.8324
 CYCLE:    84 TIME:   0.039 TIME LEFT:  2.00D  GRAD.:     2.537 HEAT:  101.8287
 CYCLE:    85 TIME:   0.039 TIME LEFT:  2.00D  GRAD.:     2.411 HEAT:  101.8265
 CYCLE:    86 TIME:   0.039 TIME LEFT:  2.00D  GRAD.:     1.357 HEAT:  101.8251
 CYCLE:    87 TIME:   0.039 TIME LEFT:  2.00D  GRAD.:     1.404 HEAT:  101.8231
 CYCLE:    88 TIME:   0.043 TIME LEFT:  2.00D  GRAD.:     1.656 HEAT:  101.8211
 CYCLE:    89 TIME:   0.043 TIME LEFT:  2.00D  GRAD.:     2.408 HEAT:  101.8191
 CYCLE:    90 TIME:   0.039 TIME LEFT:  2.00D  GRAD.:     1.693 HEAT:  101.8171
 CYCLE:    91 TIME:   0.043 TIME LEFT:  2.00D  GRAD.:     1.148 HEAT:  101.8158
 CYCLE:    92 TIME:   0.039 TIME LEFT:  2.00D  GRAD.:     1.428 HEAT:  101.8144
 CYCLE:    93 TIME:   0.043 TIME LEFT:  2.00D  GRAD.:     1.761 HEAT:  101.8125
 CYCLE:    94 TIME:   0.043 TIME LEFT:  2.00D  GRAD.:     2.178 HEAT:  101.8104
 CYCLE:    95 TIME:   0.039 TIME LEFT:  2.00D  GRAD.:     1.755 HEAT:  101.8089
 CYCLE:    96 TIME:   0.039 TIME LEFT:  2.00D  GRAD.:     1.263 HEAT:  101.8080
 CYCLE:    97 TIME:   0.043 TIME LEFT:  2.00D  GRAD.:     1.579 HEAT:  101.8064
 CYCLE:    98 TIME:   0.039 TIME LEFT:  2.00D  GRAD.:     1.276 HEAT:  101.8049
 CYCLE:    99 TIME:   0.047 TIME LEFT:  2.00D  GRAD.:     1.566 HEAT:  101.8028
 CYCLE:   100 TIME:   0.043 TIME LEFT:  2.00D  GRAD.:     6.291 HEAT:  101.8063
 CYCLE:   101 TIME:   0.043 TIME LEFT:  2.00D  GRAD.:     1.285 HEAT:  101.8007
 CYCLE:   102 TIME:   0.039 TIME LEFT:  2.00D  GRAD.:     0.912 HEAT:  101.8000

 -------------------------------------------------------------------------------
 PM7 XYZ

 Lipophilicity_1449 - geometry optimisation


     HERBERTS TEST WAS SATISFIED IN BFGS                      
     SCF FIELD WAS ACHIEVED                                   


                              PM7 CALCULATION
                                                       MOPAC v23.0.3 Linux
                                                       Fri Jul 25 17:12:56 2025




          FINAL HEAT OF FORMATION =        101.80000 KCAL/MOL =     425.93119 KJ/MOL


          COSMO AREA              =        404.67 SQUARE ANGSTROMS
          COSMO VOLUME            =        480.08 CUBIC ANGSTROMS

          GRADIENT NORM           =          0.91194          =       0.12646 PER ATOM
          IONIZATION POTENTIAL    =          8.854579 EV
          HOMO LUMO ENERGIES (EV) =         -8.855 -1.256
          NO. OF FILLED LEVELS    =         76
          MOLECULAR WEIGHT        =        407.4738         POINT GROUP:  C1  

          MOLECULAR DIMENSIONS (Angstroms)

            Atom       Atom       Distance
            H    46    H    37    15.56547
            H    50    H    45    10.23188
            H    52    H    33     4.05699


          SCF CALCULATIONS        =        103

          WALL-CLOCK TIME         =      4.297 SECONDS
          COMPUTATION TIME        =          1 MINUTE AND 25.606 SECONDS




   ATOM   CHEMICAL          X               Y               Z
  NUMBER   SYMBOL      (ANGSTROMS)     (ANGSTROMS)     (ANGSTROMS)

     1       N         -4.79679410  *  -1.98963421  *  -0.96608968  *
     2       C         -4.62168242  *  -0.74084850  *  -0.21319334  *
     3       C         -5.60846905  *   0.37725197  *  -0.69486374  *
     4       C         -6.32946638  *   0.33824185  *   0.67512282  *
     5       C         -5.37224158  *  -0.77806756  *   1.16140375  *
     6       C         -3.17164186  *  -0.33658913  *  -0.15471721  *
     7       C         -2.35740039  *  -0.78323786  *   0.88775622  *
     8       C         -1.01067003  *  -0.43755227  *   0.92156144  *
     9       C         -0.46909634  *   0.34802526  *  -0.09852102  *
    10       C         -1.27887964  *   0.79917723  *  -1.14203138  *
    11       C         -2.62481272  *   0.44703367  *  -1.17221353  *
    12       C          0.96265923  *   0.69878091  *  -0.07365190  *
    13       N          1.25151443  *   2.00628214  *  -0.15890202  *
    14       C          2.54574896  *   2.40241493  *  -0.12615171  *
    15       C          2.82853788  *   3.82124297  *  -0.22711756  *
    16       C          4.10267897  *   4.28287212  *  -0.19361474  *
    17       N          5.15157562  *   3.38115267  *  -0.06061329  *
    18       C          6.56013625  *   3.62375304  *   0.00549954  *
    19       O          7.12137712  *   4.68598720  *  -0.05027238  *
    20       N          7.09152293  *   2.33579405  *   0.14790366  *
    21       N          6.12131534  *   1.35511646  *   0.16874722  *
    22       C          4.94444493  *   1.97226887  *   0.04380926  *
    23       C          3.60144413  *   1.46369846  *   0.00282363  *
    24       C          3.29599175  *   0.09975090  *   0.07625871  *
    25       C          1.96719059  *  -0.30022053  *   0.03072430  *
    26       C          1.61746518  *  -1.72195130  *   0.07846057  *
    27       C          0.90638916  *  -2.30352508  *  -0.97545653  *
    28       C          0.54995239  *  -3.64783663  *  -0.91439746  *
    29       C          0.90616328  *  -4.41509632  *   0.19403272  *
    30       C          1.62619197  *  -3.83860113  *   1.23910141  *
    31       C          1.98520828  *  -2.49412477  *   1.18346132  *
    32       H         -4.31698955  *  -2.76287460  *  -0.53294198  *
    33       H         -4.48871073  *  -1.90197609  *  -1.92138953  *
    34       H         -5.13887918  *   1.33394898  *  -0.92898430  *
    35       H         -6.23379133  *   0.07478549  *  -1.53996503  *
    36       H         -6.26593621  *   1.26796393  *   1.24552462  *
    37       H         -7.37930451  *   0.03928538  *   0.62218791  *
    38       H         -5.86510019  *  -1.73369521  *   1.36441046  *
    39       H         -4.76409584  *  -0.50531984  *   2.02519073  *
    40       H         -2.77157826  *  -1.40572245  *   1.67931874  *
    41       H         -0.37723294  *  -0.78324999  *   1.73895025  *
    42       H         -0.85576144  *   1.43203831  *  -1.92356822  *
    43       H         -3.25175564  *   0.79238665  *  -1.99257447  *
    44       H          1.97376511  *   4.49367427  *  -0.32861409  *
    45       H          4.39261204  *   5.33946511  *  -0.26323473  *
    46       H          8.05021184  *   2.05359607  *   0.22673986  *
    47       H          4.10218764  *  -0.63640677  *   0.16070683  *
    48       H          0.62607707  *  -1.70244171  *  -1.83935047  *
    49       H         -0.00834875  *  -4.09929506  *  -1.73220783  *
    50       H          0.62340656  *  -5.46437356  *   0.24225266  *
    51       H          1.90758312  *  -4.43990374  *   2.10132038  *
    52       H          2.54529162  *  -2.04344755  *   2.00137754  *

                             CARTESIAN COORDINATES

   1    N       -4.796794098    -1.989634208    -0.966089684
   2    C       -4.621682421    -0.740848498    -0.213193338
   3    C       -5.608469049     0.377251969    -0.694863736
   4    C       -6.329466381     0.338241851     0.675122816
   5    C       -5.372241580    -0.778067558     1.161403747
   6    C       -3.171641860    -0.336589129    -0.154717214
   7    C       -2.357400386    -0.783237855     0.887756219
   8    C       -1.010670027    -0.437552274     0.921561437
   9    C       -0.469096341     0.348025264    -0.098521023
  10    C       -1.278879639     0.799177230    -1.142031379
  11    C       -2.624812719     0.447033665    -1.172213529
  12    C        0.962659229     0.698780908    -0.073651897
  13    N        1.251514432     2.006282141    -0.158902022
  14    C        2.545748956     2.402414930    -0.126151710
  15    C        2.828537876     3.821242975    -0.227117559
  16    C        4.102678969     4.282872120    -0.193614736
  17    N        5.151575618     3.381152669    -0.060613287
  18    C        6.560136252     3.623753038     0.005499544
  19    O        7.121377124     4.685987196    -0.050272380
  20    N        7.091522928     2.335794052     0.147903663
  21    N        6.121315339     1.355116456     0.168747225
  22    C        4.944444927     1.972268874     0.043809261
  23    C        3.601444126     1.463698458     0.002823629
  24    C        3.295991753     0.099750904     0.076258714
  25    C        1.967190586    -0.300220529     0.030724296
  26    C        1.617465184    -1.721951296     0.078460575
  27    C        0.906389159    -2.303525084    -0.975456528
  28    C        0.549952390    -3.647836625    -0.914397456
  29    C        0.906163277    -4.415096316     0.194032720
  30    C        1.626191975    -3.838601135     1.239101413
  31    C        1.985208285    -2.494124767     1.183461319
  32    H       -4.316989551    -2.762874599    -0.532941983
  33    H       -4.488710730    -1.901976085    -1.921389527
  34    H       -5.138879179     1.333948975    -0.928984300
  35    H       -6.233791331     0.074785486    -1.539965027
  36    H       -6.265936214     1.267963927     1.245524616
  37    H       -7.379304506     0.039285379     0.622187906
  38    H       -5.865100186    -1.733695212     1.364410459
  39    H       -4.764095845    -0.505319840     2.025190730
  40    H       -2.771578257    -1.405722452     1.679318736
  41    H       -0.377232943    -0.783249993     1.738950255
  42    H       -0.855761442     1.432038308    -1.923568219
  43    H       -3.251755637     0.792386648    -1.992574467
  44    H        1.973765115     4.493674272    -0.328614093
  45    H        4.392612035     5.339465111    -0.263234731
  46    H        8.050211844     2.053596070     0.226739864
  47    H        4.102187643    -0.636406766     0.160706826
  48    H        0.626077072    -1.702441714    -1.839350469
  49    H       -0.008348749    -4.099295056    -1.732207834
  50    H        0.623406558    -5.464373560     0.242252663
  51    H        1.907583123    -4.439903745     2.101320381
  52    H        2.545291619    -2.043447550     2.001377540


           Empirical Formula: C25 H21 N5 O  =    52 atoms



      MOLECULAR POINT GROUP   :   C1  


                  EIGENVALUES  
 -41.24422 -36.84489 -36.30445 -35.70331 -32.19260 -31.12235 -30.76067 -30.40992
 -29.77234 -29.29743 -28.89794 -27.32053 -26.42987 -26.22895 -26.06734 -25.39473
 -23.99384 -23.64318 -23.31964 -22.73602 -22.03765 -21.59806 -21.13459 -21.00755
 -20.64613 -20.47479 -19.25377 -18.91013 -18.32993 -18.12036 -17.94114 -17.65594
 -17.18365 -17.03107 -16.75506 -16.53768 -16.42977 -15.99671 -15.91573 -15.64477
 -15.47725 -15.39177 -15.23000 -15.01068 -14.91017 -14.65024 -14.51442 -14.47258
 -14.39873 -14.09272 -13.78385 -13.67699 -13.58786 -13.45243 -13.26083 -13.23220
 -12.95549 -12.74944 -12.65439 -12.27725 -12.24772 -12.21111 -11.85346 -11.67517
 -11.55038 -11.25175 -11.15662 -10.92810 -10.80782 -10.32589 -10.08523 -10.02948
  -9.90310  -9.72710  -9.40333  -8.85458  -1.25559  -1.02568  -0.13805  -0.10651
   0.02112   0.06572   0.11891   0.25852   0.66390   1.08899   1.36897   2.05771
   2.21843   2.33024   2.35901   2.74108   3.05794   3.17154   3.21725   3.29652
   3.47462   3.50330   3.55338   3.63015   3.64680   3.67329   3.82776   3.93518
   4.04965   4.21637   4.25422   4.36722   4.42405   4.62570   4.68984   4.80534
   4.82008   4.82459   4.85761   4.89218   4.95084   5.03732   5.10448   5.11835
   5.16192   5.27142   5.42510   5.43803   5.50322   5.52807   5.63668   5.71003
   5.71450   5.83465   5.83779   5.86574   5.94661   5.98349   5.99791   6.01831
   6.02749   6.09341   6.11317   6.14612   6.32700   6.50021   6.53663   6.65675
   6.99650


              NET ATOMIC CHARGES AND DIPOLE CONTRIBUTIONS

  ATOM NO.   TYPE          CHARGE      No. of ELECS.   s-Pop       p-Pop       
    1          N          -0.652165        5.6522     1.63796     4.01420
    2          C           0.182157        3.8178     1.06634     2.75150
    3          C          -0.293615        4.2936     1.07462     3.21900
    4          C          -0.263746        4.2637     1.06281     3.20093
    5          C          -0.291647        4.2916     1.07445     3.21720
    6          C          -0.045447        4.0454     1.08559     2.95986
    7          C          -0.170951        4.1710     1.08238     3.08857
    8          C          -0.119061        4.1191     1.08617     3.03289
    9          C          -0.042839        4.0428     1.05938     2.98346
   10          C          -0.104379        4.1044     1.08667     3.01771
   11          C          -0.175112        4.1751     1.08252     3.09259
   12          C           0.225615        3.7744     1.07822     2.69616
   13          N          -0.390016        5.3900     1.74225     3.64777
   14          C           0.241766        3.7582     1.06495     2.69329
   15          C          -0.272494        4.2725     1.07803     3.19446
   16          C           0.118836        3.8812     1.08947     2.79169
   17          N          -0.423579        5.4236     1.55965     3.86393
   18          C           0.628033        3.3720     1.03908     2.33288
   19          O          -0.465016        6.4650     1.88006     4.58496
   20          N          -0.386413        5.3864     1.54220     3.84421
   21          N          -0.233068        5.2331     1.79302     3.44005
   22          C           0.238205        3.7618     1.06558     2.69621
   23          C          -0.157108        4.1571     1.05104     3.10607
   24          C          -0.036112        4.0361     1.09236     2.94376
   25          C          -0.127724        4.1277     1.06707     3.06065
   26          C          -0.001426        4.0014     1.05675     2.94468
   27          C          -0.143060        4.1431     1.08539     3.05767
   28          C          -0.143224        4.1432     1.08327     3.05995
   29          C          -0.142836        4.1428     1.08394     3.05890
   30          C          -0.144345        4.1443     1.08299     3.06135
   31          C          -0.151527        4.1515     1.08423     3.06729
   32          H           0.255814        0.7442     0.74419
   33          H           0.254657        0.7453     0.74534
   34          H           0.142396        0.8576     0.85760
   35          H           0.154764        0.8452     0.84524
   36          H           0.137884        0.8621     0.86212
   37          H           0.142193        0.8578     0.85781
   38          H           0.155089        0.8449     0.84491
   39          H           0.142699        0.8573     0.85730
   40          H           0.157595        0.8424     0.84241
   41          H           0.163731        0.8363     0.83627
   42          H           0.168563        0.8314     0.83144
   43          H           0.155891        0.8441     0.84411
   44          H           0.203718        0.7963     0.79628
   45          H           0.192966        0.8070     0.80703
   46          H           0.363151        0.6368     0.63685
   47          H           0.186775        0.8132     0.81322
   48          H           0.158954        0.8410     0.84105
   49          H           0.150282        0.8497     0.84972
   50          H           0.147385        0.8526     0.85261
   51          H           0.148678        0.8513     0.85132
   52          H           0.159112        0.8409     0.84089
 DIPOLE           X         Y         Z       TOTAL
 POINT-CHG.    -2.121    -2.228     0.182     3.081
 HYBRID         2.014     0.035    -0.157     2.020
 SUM           -0.107    -2.193     0.024     2.195


          ATOMIC ORBITAL ELECTRON POPULATIONS

     Atom    s        px        py        pz   
    1  N   1.63796   1.68890   1.15034   1.17496
    2  C   1.06634   0.91082   0.87876   0.96192
    3  C   1.07462   1.07641   1.08233   1.06026
    4  C   1.06281   1.08506   1.08448   1.03139
    5  C   1.07445   1.07620   1.10253   1.03846
    6  C   1.08559   1.00088   0.97800   0.98098
    7  C   1.08238   1.00028   1.04077   1.04752
    8  C   1.08617   1.01735   0.98063   1.03490
    9  C   1.05938   0.95449   1.01985   1.00912
   10  C   1.08667   0.98926   0.99613   1.03233
   11  C   1.08252   1.02105   1.02201   1.04953
   12  C   1.07822   0.96619   0.86648   0.86349
   13  N   1.74225   1.24184   1.22432   1.18161
   14  C   1.06495   0.86440   0.95064   0.87825
   15  C   1.07803   1.04270   1.02874   1.12302
   16  C   1.08947   0.87324   0.98554   0.93291
   17  N   1.55965   1.14528   1.13043   1.58823
   18  C   1.03908   0.75178   0.78252   0.79859
   19  O   1.88006   1.66901   1.31380   1.60216
   20  N   1.54220   1.13087   1.06302   1.65032
   21  N   1.79302   1.00119   1.15410   1.28476
   22  C   1.06558   0.93009   0.77110   0.99502
   23  C   1.05104   0.95290   1.00947   1.14370
   24  C   1.09236   1.03652   1.00996   0.89728
   25  C   1.06707   0.98812   0.99817   1.07436
   26  C   1.05675   1.00501   0.94720   0.99246
   27  C   1.08539   0.99497   1.01643   1.04627
   28  C   1.08327   1.01780   1.00199   1.04016
   29  C   1.08394   0.99879   1.07137   0.98874
   30  C   1.08299   1.00071   1.01413   1.04651
   31  C   1.08423   1.02603   1.00228   1.03899
   32  H   0.74419
   33  H   0.74534
   34  H   0.85760
   35  H   0.84524
   36  H   0.86212
   37  H   0.85781
   38  H   0.84491
   39  H   0.85730
   40  H   0.84241
   41  H   0.83627
   42  H   0.83144
   43  H   0.84411
   44  H   0.79628
   45  H   0.80703
   46  H   0.63685
   47  H   0.81322
   48  H   0.84105
   49  H   0.84972
   50  H   0.85261
   51  H   0.85132
   52  H   0.84089

 **********************
 *                    *
 * JOB ENDED NORMALLY *
 *                    *
 **********************



 TOTAL JOB TIME:             4.30 SECONDS

 == MOPAC DONE ==
