 *******************************************************************************
 **                                                                           **
 **                              MOPAC v23.0.3                                **
 **                                                                           **
 *******************************************************************************
 **          Digital Object Identifier (DOI): 10.5281/zenodo.6511958          **
 **    Visit the DOI location for information on how to cite this program.    **
 *******************************************************************************

                              PM7 CALCULATION RESULTS

 *******************************************************************************
 *  CALCULATION DONE:                                Fri Jul 25 19:38:50 2025  *
 *  PM7        - The PM7 Hamiltonian to be used
 *  XYZ        - CARTESIAN COORDINATE SYSTEM TO BE USED
 *  T=         - A TIME OF 172800.0 SECONDS REQUESTED
 *  DUMP=N     - RESTART FILE WRITTEN EVERY 7200.0 SECONDS REQUESTED
 *******************************************************************************
PM7 XYZ

 Lipophilicity_388 - geometry optimisation
   ATOM   CHEMICAL          X               Y               Z
  NUMBER   SYMBOL      (ANGSTROMS)     (ANGSTROMS)     (ANGSTROMS)

     1       O         -2.38767000  *  -3.05972900  *   0.20116300  *
     2       C         -2.84758200  *  -2.14872900  *  -0.54190200  *
     3       C         -4.10779900  *  -2.40021700  *  -1.31679700  *
     4       N         -5.14603300  *  -1.41863500  *  -0.94713500  *
     5       C         -6.17748400  *  -1.33805000  *  -2.00159800  *
     6       C         -7.45431300  *  -0.67233400  *  -1.46105700  *
     7       O         -8.04704800  *  -1.34326600  *  -0.35624400  *
     8       C         -7.16106600  *  -2.22164800  *   0.32106700  *
     9       C         -5.72114800  *  -1.68255100  *   0.39677500  *
    10       N         -2.18492500  *  -0.87853900  *  -0.64256100  *
    11       C         -0.98401300  *  -0.54786500  *   0.07763400  *
    12       C          0.07590200  *  -1.46656000  *   0.16563700  *
    13       C          1.23478000  *  -1.14751800  *   0.87652400  *
    14       C          1.36147900  *   0.10135200  *   1.50158500  *
    15       C          0.31739600  *   1.03278400  *   1.39034400  *
    16       C         -0.85330400  *   0.72156100  *   0.67228500  *
    17       O         -1.90702400  *   1.64143500  *   0.54157000  *
    18       C         -1.89178700  *   2.96788900  *   1.05913300  *
    19       C         -3.20642900  *   3.66122300  *   0.69902600  *
    20       C         -3.21088500  *   4.40347800  *  -0.62794900  *
    21       C         -3.15016000  *   5.18097300  *   0.67886500  *
    22       C          2.57117100  *   0.43345400  *   2.29160400  *
    23       C          2.42570600  *   0.94203900  *   3.59460100  *
    24       C          3.54590100  *   1.27364900  *   4.35840100  *
    25       C          4.82863700  *   1.11451700  *   3.83365500  *
    26       C          5.00103200  *   0.61661000  *   2.53078800  *
    27       C          6.27363400  *   0.46050900  *   1.95761300  *
    28       O          7.31928400  *   0.74314000  *   2.60396400  *
    29       C          6.38116200  *  -0.01189400  *   0.65104900  *
    30       C          5.21729800  *  -0.32667600  *  -0.05860400  *
    31       O          4.02485600  *  -0.17752900  *   0.50997500  *
    32       C          3.86624500  *   0.27424600  *   1.75382000  *
    33       N          5.30218900  *  -0.81420100  *  -1.40060000  *
    34       C          5.37534400  *  -2.25977200  *  -1.61004500  *
    35       C          4.99012500  *  -2.59469200  *  -3.05354700  *
    36       O          5.75683800  *  -1.82939100  *  -3.96340500  *
    37       C          5.42885600  *  -0.45928400  *  -3.82864600  *
    38       C          5.82213500  *   0.07094200  *  -2.44327400  *
    39       H         -4.47210200  *  -3.43991500  *  -1.14973800  *
    40       H         -3.85275100  *  -2.30453600  *  -2.39548000  *
    41       H         -6.43722500  *  -2.34949700  *  -2.38941200  *
    42       H         -5.78646200  *  -0.73468200  *  -2.84899400  *
    43       H         -7.21972900  *   0.37077400  *  -1.16287800  *
    44       H         -8.20080900  *  -0.61872900  *  -2.27945200  *
    45       H         -7.16769300  *  -3.21559000  *  -0.17794800  *
    46       H         -7.53956700  *  -2.37051500  *   1.35467100  *
    47       H         -5.73291300  *  -0.72609000  *   0.96187100  *
    48       H         -5.10275700  *  -2.39295400  *   0.99046100  *
    49       H         -2.68643200  *  -0.11104800  *  -1.14634700  *
    50       H          0.01316800  *  -2.42816000  *  -0.32698000  *
    51       H          2.02585500  *  -1.88345900  *   0.95106800  *
    52       H          0.42788500  *   1.99995800  *   1.86191400  *
    53       H         -1.01555100  *   3.51527000  *   0.64784900  *
    54       H         -1.80707600  *   2.93323300  *   2.16642400  *
    55       H         -4.17744600  *   3.22062300  *   1.01095200  *
    56       H         -2.25640200  *   4.40296500  *  -1.19674700  *
    57       H         -4.20081600  *   4.44871900  *  -1.12838600  *
    58       H         -2.16017200  *   5.64010300  *   0.88514200  *
    59       H         -4.10440100  *   5.68082700  *   0.95122500  *
    60       H          1.44034800  *   1.07238000  *   4.02641500  *
    61       H          3.41851500  *   1.65817100  *   5.36246900  *
    62       H          5.68076900  *   1.38660600  *   4.44548800  *
    63       H          7.35333100  *  -0.13896500  *   0.19172500  *
    64       H          4.69153000  *  -2.78920800  *  -0.91192000  *
    65       H          6.41580900  *  -2.60226700  *  -1.42155300  *
    66       H          5.19397400  *  -3.67076400  *  -3.23789000  *
    67       H          3.89771400  *  -2.43670500  *  -3.21328800  *
    68       H          4.34510600  *  -0.28665900  *  -4.02518300  *
    69       H          5.99086800  *   0.11476000  *  -4.59476700  *
    70       H          5.41216500  *   1.09617000  *  -2.31112500  *
    71       H          6.93196500  *   0.11846200  *  -2.36852400  *



          CARTESIAN COORDINATES 

    NO.       ATOM           X           Y           Z

     1         O         -2.3877     -3.0597      0.2012
     2         C         -2.8476     -2.1487     -0.5419
     3         C         -4.1078     -2.4002     -1.3168
     4         N         -5.1460     -1.4186     -0.9471
     5         C         -6.1775     -1.3380     -2.0016
     6         C         -7.4543     -0.6723     -1.4611
     7         O         -8.0470     -1.3433     -0.3562
     8         C         -7.1611     -2.2216      0.3211
     9         C         -5.7211     -1.6826      0.3968
    10         N         -2.1849     -0.8785     -0.6426
    11         C         -0.9840     -0.5479      0.0776
    12         C          0.0759     -1.4666      0.1656
    13         C          1.2348     -1.1475      0.8765
    14         C          1.3615      0.1014      1.5016
    15         C          0.3174      1.0328      1.3903
    16         C         -0.8533      0.7216      0.6723
    17         O         -1.9070      1.6414      0.5416
    18         C         -1.8918      2.9679      1.0591
    19         C         -3.2064      3.6612      0.6990
    20         C         -3.2109      4.4035     -0.6279
    21         C         -3.1502      5.1810      0.6789
    22         C          2.5712      0.4335      2.2916
    23         C          2.4257      0.9420      3.5946
    24         C          3.5459      1.2736      4.3584
    25         C          4.8286      1.1145      3.8337
    26         C          5.0010      0.6166      2.5308
    27         C          6.2736      0.4605      1.9576
    28         O          7.3193      0.7431      2.6040
    29         C          6.3812     -0.0119      0.6510
    30         C          5.2173     -0.3267     -0.0586
    31         O          4.0249     -0.1775      0.5100
    32         C          3.8662      0.2742      1.7538
    33         N          5.3022     -0.8142     -1.4006
    34         C          5.3753     -2.2598     -1.6100
    35         C          4.9901     -2.5947     -3.0535
    36         O          5.7568     -1.8294     -3.9634
    37         C          5.4289     -0.4593     -3.8286
    38         C          5.8221      0.0709     -2.4433
    39         H         -4.4721     -3.4399     -1.1497
    40         H         -3.8528     -2.3045     -2.3955
    41         H         -6.4372     -2.3495     -2.3894
    42         H         -5.7865     -0.7347     -2.8490
    43         H         -7.2197      0.3708     -1.1629
    44         H         -8.2008     -0.6187     -2.2795
    45         H         -7.1677     -3.2156     -0.1779
    46         H         -7.5396     -2.3705      1.3547
    47         H         -5.7329     -0.7261      0.9619
    48         H         -5.1028     -2.3930      0.9905
    49         H         -2.6864     -0.1110     -1.1463
    50         H          0.0132     -2.4282     -0.3270
    51         H          2.0259     -1.8835      0.9511
    52         H          0.4279      2.0000      1.8619
    53         H         -1.0156      3.5153      0.6478
    54         H         -1.8071      2.9332      2.1664
    55         H         -4.1774      3.2206      1.0110
    56         H         -2.2564      4.4030     -1.1967
    57         H         -4.2008      4.4487     -1.1284
    58         H         -2.1602      5.6401      0.8851
    59         H         -4.1044      5.6808      0.9512
    60         H          1.4403      1.0724      4.0264
    61         H          3.4185      1.6582      5.3625
    62         H          5.6808      1.3866      4.4455
    63         H          7.3533     -0.1390      0.1917
    64         H          4.6915     -2.7892     -0.9119
    65         H          6.4158     -2.6023     -1.4216
    66         H          5.1940     -3.6708     -3.2379
    67         H          3.8977     -2.4367     -3.2133
    68         H          4.3451     -0.2867     -4.0252
    69         H          5.9909      0.1148     -4.5948
    70         H          5.4122      1.0962     -2.3111
    71         H          6.9320      0.1185     -2.3685

 General Reference for PM7:
 "Optimization of Parameters for Semiempirical Methods VI: More Modifications to the 
 NDDO Approximations and Re-optimization of Parameters", J. J. P. Stewart, J. Mol. Mod., 1:32, 19 (2013)
 https://link.springer.com/article/10.1007/s00894-012-1667-x

           Empirical Formula: C29 H33 N3 O6  =    71 atoms



      MOLECULAR POINT GROUP   :   C1  


      RHF CALCULATION, NO. OF DOUBLY OCCUPIED LEVELS = 100


          Geometry optimization using L-BFGS
 CYCLE:     1 TIME:   0.117 TIME LEFT:  2.00D  GRAD.:   309.488 HEAT: -93.96374
 CYCLE:     2 TIME:   0.062 TIME LEFT:  2.00D  GRAD.:   302.061 HEAT: -94.91020
 CYCLE:     3 TIME:   0.086 TIME LEFT:  2.00D  GRAD.:    99.924 HEAT: -116.9592
 CYCLE:     4 TIME:   0.094 TIME LEFT:  2.00D  GRAD.:   302.266 HEAT: -94.91050
 CYCLE:     5 TIME:   0.086 TIME LEFT:  2.00D  GRAD.:   100.033 HEAT: -116.9620
 CYCLE:     6 TIME:   0.070 TIME LEFT:  2.00D  GRAD.:    76.469 HEAT: -119.8560
 CYCLE:     7 TIME:   0.078 TIME LEFT:  2.00D  GRAD.:    64.574 HEAT: -126.2992
 CYCLE:     8 TIME:   0.078 TIME LEFT:  2.00D  GRAD.:   109.584 HEAT: -128.6593
 CYCLE:     9 TIME:   0.070 TIME LEFT:  2.00D  GRAD.:    48.146 HEAT: -130.9381
 CYCLE:    10 TIME:   0.086 TIME LEFT:  2.00D  GRAD.:    40.212 HEAT: -131.8575
 CYCLE:    11 TIME:   0.070 TIME LEFT:  2.00D  GRAD.:    38.422 HEAT: -133.2053
 CYCLE:    12 TIME:   0.078 TIME LEFT:  2.00D  GRAD.:    58.133 HEAT: -133.9471
 CYCLE:    13 TIME:   0.070 TIME LEFT:  2.00D  GRAD.:    22.668 HEAT: -134.6311
 CYCLE:    14 TIME:   0.070 TIME LEFT:  2.00D  GRAD.:    20.211 HEAT: -134.8840
 CYCLE:    15 TIME:   0.070 TIME LEFT:  2.00D  GRAD.:    23.936 HEAT: -135.4667
 CYCLE:    16 TIME:   0.070 TIME LEFT:  2.00D  GRAD.:    55.609 HEAT: -135.7113
 CYCLE:    17 TIME:   0.070 TIME LEFT:  2.00D  GRAD.:    20.751 HEAT: -136.2499
 CYCLE:    18 TIME:   0.062 TIME LEFT:  2.00D  GRAD.:    12.804 HEAT: -136.4718
 CYCLE:    19 TIME:   0.070 TIME LEFT:  2.00D  GRAD.:    14.489 HEAT: -136.6340
 CYCLE:    20 TIME:   0.062 TIME LEFT:  2.00D  GRAD.:    14.062 HEAT: -136.8670
 CYCLE:    21 TIME:   0.070 TIME LEFT:  2.00D  GRAD.:    49.462 HEAT: -136.7013
 CYCLE:    22 TIME:   0.070 TIME LEFT:  2.00D  GRAD.:     9.883 HEAT: -137.1352
 CYCLE:    23 TIME:   0.062 TIME LEFT:  2.00D  GRAD.:     8.036 HEAT: -137.1901
 CYCLE:    24 TIME:   0.070 TIME LEFT:  2.00D  GRAD.:    11.175 HEAT: -137.3217
 CYCLE:    25 TIME:   0.070 TIME LEFT:  2.00D  GRAD.:    21.459 HEAT: -137.3765
 CYCLE:    26 TIME:   0.070 TIME LEFT:  2.00D  GRAD.:     9.489 HEAT: -137.4684
 CYCLE:    27 TIME:   0.070 TIME LEFT:  2.00D  GRAD.:     8.383 HEAT: -137.5256
 CYCLE:    28 TIME:   0.070 TIME LEFT:  2.00D  GRAD.:     8.654 HEAT: -137.5905
 CYCLE:    29 TIME:   0.078 TIME LEFT:  2.00D  GRAD.:    10.935 HEAT: -137.6603
 CYCLE:    30 TIME:   0.070 TIME LEFT:  2.00D  GRAD.:    18.768 HEAT: -137.6878
 CYCLE:    31 TIME:   0.070 TIME LEFT:  2.00D  GRAD.:     6.432 HEAT: -137.7560
 CYCLE:    32 TIME:   0.062 TIME LEFT:  2.00D  GRAD.:     5.724 HEAT: -137.7808
 CYCLE:    33 TIME:   0.070 TIME LEFT:  2.00D  GRAD.:     7.415 HEAT: -137.8312
 CYCLE:    34 TIME:   0.070 TIME LEFT:  2.00D  GRAD.:    14.622 HEAT: -137.9002
 CYCLE:    35 TIME:   0.070 TIME LEFT:  2.00D  GRAD.:     9.104 HEAT: -137.9710
 CYCLE:    36 TIME:   0.070 TIME LEFT:  2.00D  GRAD.:     6.416 HEAT: -138.0210
 CYCLE:    37 TIME:   0.070 TIME LEFT:  2.00D  GRAD.:     8.824 HEAT: -138.0780
 CYCLE:    38 TIME:   0.062 TIME LEFT:  2.00D  GRAD.:    12.292 HEAT: -138.1205
 CYCLE:    39 TIME:   0.070 TIME LEFT:  2.00D  GRAD.:     9.634 HEAT: -138.1696
 CYCLE:    40 TIME:   0.070 TIME LEFT:  2.00D  GRAD.:    12.281 HEAT: -138.2410
 CYCLE:    41 TIME:   0.070 TIME LEFT:  2.00D  GRAD.:     9.477 HEAT: -138.2821
 CYCLE:    42 TIME:   0.070 TIME LEFT:  2.00D  GRAD.:     7.840 HEAT: -138.3129
 CYCLE:    43 TIME:   0.070 TIME LEFT:  2.00D  GRAD.:     9.386 HEAT: -138.4095
 CYCLE:    44 TIME:   0.070 TIME LEFT:  2.00D  GRAD.:    18.151 HEAT: -138.4282
 CYCLE:    45 TIME:   0.070 TIME LEFT:  2.00D  GRAD.:     7.739 HEAT: -138.4800
 CYCLE:    46 TIME:   0.062 TIME LEFT:  2.00D  GRAD.:     5.210 HEAT: -138.5146
 CYCLE:    47 TIME:   0.070 TIME LEFT:  2.00D  GRAD.:     8.540 HEAT: -138.5680
 CYCLE:    48 TIME:   0.070 TIME LEFT:  2.00D  GRAD.:    11.794 HEAT: -138.6375
 CYCLE:    49 TIME:   0.070 TIME LEFT:  2.00D  GRAD.:    17.175 HEAT: -138.6947
 CYCLE:    50 TIME:   0.070 TIME LEFT:  2.00D  GRAD.:     8.037 HEAT: -138.7853
 CYCLE:    51 TIME:   0.062 TIME LEFT:  2.00D  GRAD.:     7.780 HEAT: -138.8480
 CYCLE:    52 TIME:   0.078 TIME LEFT:  2.00D  GRAD.:     8.716 HEAT: -138.9084
 CYCLE:    53 TIME:   0.078 TIME LEFT:  2.00D  GRAD.:    23.468 HEAT: -138.9328
 CYCLE:    54 TIME:   0.062 TIME LEFT:  2.00D  GRAD.:     8.500 HEAT: -139.0320
 CYCLE:    55 TIME:   0.070 TIME LEFT:  2.00D  GRAD.:     5.966 HEAT: -139.0701
 CYCLE:    56 TIME:   0.062 TIME LEFT:  2.00D  GRAD.:     8.097 HEAT: -139.1103
 CYCLE:    57 TIME:   0.078 TIME LEFT:  2.00D  GRAD.:    12.169 HEAT: -139.1717
 CYCLE:    58 TIME:   0.070 TIME LEFT:  2.00D  GRAD.:    13.702 HEAT: -139.2437
 CYCLE:    59 TIME:   0.070 TIME LEFT:  2.00D  GRAD.:     8.050 HEAT: -139.3191
 CYCLE:    60 TIME:   0.070 TIME LEFT:  2.00D  GRAD.:     7.935 HEAT: -139.3832
 CYCLE:    61 TIME:   0.062 TIME LEFT:  2.00D  GRAD.:    10.370 HEAT: -139.4305
 CYCLE:    62 TIME:   0.078 TIME LEFT:  2.00D  GRAD.:     6.840 HEAT: -139.4760
 CYCLE:    63 TIME:   0.070 TIME LEFT:  2.00D  GRAD.:     6.989 HEAT: -139.5107
 CYCLE:    64 TIME:   0.062 TIME LEFT:  2.00D  GRAD.:     8.387 HEAT: -139.5504
 CYCLE:    65 TIME:   0.070 TIME LEFT:  2.00D  GRAD.:     8.578 HEAT: -139.5868
 CYCLE:    66 TIME:   0.062 TIME LEFT:  2.00D  GRAD.:     6.688 HEAT: -139.6323
 CYCLE:    67 TIME:   0.078 TIME LEFT:  2.00D  GRAD.:     6.627 HEAT: -139.6697
 CYCLE:    68 TIME:   0.070 TIME LEFT:  2.00D  GRAD.:     8.147 HEAT: -139.7119
 CYCLE:    69 TIME:   0.070 TIME LEFT:  2.00D  GRAD.:     7.229 HEAT: -139.7647
 CYCLE:    70 TIME:   0.070 TIME LEFT:  2.00D  GRAD.:     8.943 HEAT: -139.8105
 CYCLE:    71 TIME:   0.070 TIME LEFT:  2.00D  GRAD.:     8.611 HEAT: -139.8548
 CYCLE:    72 TIME:   0.070 TIME LEFT:  2.00D  GRAD.:     6.844 HEAT: -139.8931
 CYCLE:    73 TIME:   0.062 TIME LEFT:  2.00D  GRAD.:     6.367 HEAT: -139.9442
 CYCLE:    74 TIME:   0.078 TIME LEFT:  2.00D  GRAD.:    13.392 HEAT: -139.9769
 CYCLE:    75 TIME:   0.070 TIME LEFT:  2.00D  GRAD.:     6.936 HEAT: -140.0178
 CYCLE:    76 TIME:   0.062 TIME LEFT:  2.00D  GRAD.:     7.175 HEAT: -140.0476
 CYCLE:    77 TIME:   0.070 TIME LEFT:  2.00D  GRAD.:     5.520 HEAT: -140.0762
 CYCLE:    78 TIME:   0.070 TIME LEFT:  2.00D  GRAD.:     6.283 HEAT: -140.1096
 CYCLE:    79 TIME:   0.070 TIME LEFT:  2.00D  GRAD.:     7.297 HEAT: -140.1350
 CYCLE:    80 TIME:   0.062 TIME LEFT:  2.00D  GRAD.:     5.074 HEAT: -140.1632
 CYCLE:    81 TIME:   0.070 TIME LEFT:  2.00D  GRAD.:     5.821 HEAT: -140.1958
 CYCLE:    82 TIME:   0.062 TIME LEFT:  2.00D  GRAD.:     7.303 HEAT: -140.2200
 CYCLE:    83 TIME:   0.070 TIME LEFT:  2.00D  GRAD.:     4.972 HEAT: -140.2418
 CYCLE:    84 TIME:   0.070 TIME LEFT:  2.00D  GRAD.:     5.060 HEAT: -140.2634
 CYCLE:    85 TIME:   0.070 TIME LEFT:  2.00D  GRAD.:     7.073 HEAT: -140.2887
 CYCLE:    86 TIME:   0.062 TIME LEFT:  2.00D  GRAD.:     6.230 HEAT: -140.3238
 CYCLE:    87 TIME:   0.070 TIME LEFT:  2.00D  GRAD.:    10.952 HEAT: -140.3519
 CYCLE:    88 TIME:   0.070 TIME LEFT:  2.00D  GRAD.:     5.775 HEAT: -140.3869
 CYCLE:    89 TIME:   0.062 TIME LEFT:  2.00D  GRAD.:     5.548 HEAT: -140.4070
 CYCLE:    90 TIME:   0.070 TIME LEFT:  2.00D  GRAD.:     6.623 HEAT: -140.4410
 CYCLE:    91 TIME:   0.070 TIME LEFT:  2.00D  GRAD.:    11.347 HEAT: -140.4671
 CYCLE:    92 TIME:   0.070 TIME LEFT:  2.00D  GRAD.:     5.656 HEAT: -140.5040
 CYCLE:    93 TIME:   0.070 TIME LEFT:  2.00D  GRAD.:     5.865 HEAT: -140.5337
 CYCLE:    94 TIME:   0.062 TIME LEFT:  2.00D  GRAD.:     8.161 HEAT: -140.5687
 CYCLE:    95 TIME:   0.078 TIME LEFT:  2.00D  GRAD.:    12.794 HEAT: -140.6138
 CYCLE:    96 TIME:   0.062 TIME LEFT:  2.00D  GRAD.:     7.655 HEAT: -140.6715
 CYCLE:    97 TIME:   0.070 TIME LEFT:  2.00D  GRAD.:     9.260 HEAT: -140.7382
 CYCLE:    98 TIME:   0.078 TIME LEFT:  2.00D  GRAD.:    10.681 HEAT: -140.8070
 CYCLE:    99 TIME:   0.070 TIME LEFT:  2.00D  GRAD.:    14.634 HEAT: -140.8842
 CYCLE:   100 TIME:   0.070 TIME LEFT:  2.00D  GRAD.:    14.288 HEAT: -140.9643
 CYCLE:   101 TIME:   0.078 TIME LEFT:  2.00D  GRAD.:    18.427 HEAT: -141.0452
 CYCLE:   102 TIME:   0.078 TIME LEFT:  2.00D  GRAD.:    28.036 HEAT: -141.0802
 CYCLE:   103 TIME:   0.070 TIME LEFT:  2.00D  GRAD.:    99.990 HEAT: -139.7243
 CYCLE:   104 TIME:   0.070 TIME LEFT:  2.00D  GRAD.:    17.371 HEAT: -141.3270
 CYCLE:   105 TIME:   0.078 TIME LEFT:  2.00D  GRAD.:    13.822 HEAT: -141.3792
 CYCLE:   106 TIME:   0.078 TIME LEFT:  2.00D  GRAD.:    46.595 HEAT: -141.0445
 CYCLE:   107 TIME:   0.078 TIME LEFT:  2.00D  GRAD.:    67.420 HEAT: -140.6009
 CYCLE:   108 TIME:   0.078 TIME LEFT:  2.00D  GRAD.:    27.888 HEAT: -141.3618
 CYCLE:   109 TIME:   0.078 TIME LEFT:  2.00D  GRAD.:    24.599 HEAT: -141.4721
 CYCLE:   110 TIME:   0.070 TIME LEFT:  2.00D  GRAD.:    40.585 HEAT: -141.3632
 CYCLE:   111 TIME:   0.086 TIME LEFT:  2.00D  GRAD.:    17.206 HEAT: -141.7225
 CYCLE:   112 TIME:   0.070 TIME LEFT:  2.00D  GRAD.:    38.038 HEAT: -141.4360
 CYCLE:   113 TIME:   0.070 TIME LEFT:  2.00D  GRAD.:     9.079 HEAT: -141.8727
 CYCLE:   114 TIME:   0.086 TIME LEFT:  2.00D  GRAD.:     9.291 HEAT: -141.9068
 CYCLE:   115 TIME:   0.062 TIME LEFT:  2.00D  GRAD.:     7.222 HEAT: -141.9815
 CYCLE:   116 TIME:   0.094 TIME LEFT:  2.00D  GRAD.:    25.086 HEAT: -142.0528
 CYCLE:   117 TIME:   0.070 TIME LEFT:  2.00D  GRAD.:     8.771 HEAT: -142.1490
 CYCLE:   118 TIME:   0.070 TIME LEFT:  2.00D  GRAD.:     7.527 HEAT: -142.1872
 CYCLE:   119 TIME:   0.078 TIME LEFT:  2.00D  GRAD.:    10.215 HEAT: -142.2594
 CYCLE:   120 TIME:   0.070 TIME LEFT:  2.00D  GRAD.:    17.165 HEAT: -142.3188
 CYCLE:   121 TIME:   0.062 TIME LEFT:  2.00D  GRAD.:    10.017 HEAT: -142.4033
 CYCLE:   122 TIME:   0.070 TIME LEFT:  2.00D  GRAD.:     8.229 HEAT: -142.4871
 CYCLE:   123 TIME:   0.078 TIME LEFT:  2.00D  GRAD.:    10.423 HEAT: -142.5668
 CYCLE:   124 TIME:   0.070 TIME LEFT:  2.00D  GRAD.:    14.896 HEAT: -142.7096
 CYCLE:   125 TIME:   0.078 TIME LEFT:  2.00D  GRAD.:    26.859 HEAT: -142.8162
 CYCLE:   126 TIME:   0.070 TIME LEFT:  2.00D  GRAD.:    10.030 HEAT: -142.9367
 CYCLE:   127 TIME:   0.070 TIME LEFT:  2.00D  GRAD.:    11.372 HEAT: -142.9845
 CYCLE:   128 TIME:   0.062 TIME LEFT:  2.00D  GRAD.:    10.258 HEAT: -143.0738
 CYCLE:   129 TIME:   0.078 TIME LEFT:  2.00D  GRAD.:    10.302 HEAT: -143.1740
 CYCLE:   130 TIME:   0.070 TIME LEFT:  2.00D  GRAD.:    10.342 HEAT: -143.2473
 CYCLE:   131 TIME:   0.070 TIME LEFT:  2.00D  GRAD.:     9.074 HEAT: -143.3187
 CYCLE:   132 TIME:   0.078 TIME LEFT:  2.00D  GRAD.:     8.799 HEAT: -143.3967
 CYCLE:   133 TIME:   0.070 TIME LEFT:  2.00D  GRAD.:    14.748 HEAT: -143.4328
 CYCLE:   134 TIME:   0.062 TIME LEFT:  2.00D  GRAD.:     8.306 HEAT: -143.4911
 CYCLE:   135 TIME:   0.070 TIME LEFT:  2.00D  GRAD.:     6.490 HEAT: -143.5498
 CYCLE:   136 TIME:   0.070 TIME LEFT:  2.00D  GRAD.:     6.542 HEAT: -143.5869
 CYCLE:   137 TIME:   0.070 TIME LEFT:  2.00D  GRAD.:    16.214 HEAT: -143.5863
 CYCLE:   138 TIME:   0.070 TIME LEFT:  2.00D  GRAD.:     6.766 HEAT: -143.6530
 CYCLE:   139 TIME:   0.070 TIME LEFT:  2.00D  GRAD.:     7.563 HEAT: -143.6727
 CYCLE:   140 TIME:   0.062 TIME LEFT:  2.00D  GRAD.:     4.645 HEAT: -143.6946
 CYCLE:   141 TIME:   0.070 TIME LEFT:  2.00D  GRAD.:     5.120 HEAT: -143.7289
 CYCLE:   142 TIME:   0.070 TIME LEFT:  2.00D  GRAD.:     9.346 HEAT: -143.7566
 CYCLE:   143 TIME:   0.070 TIME LEFT:  2.00D  GRAD.:     8.662 HEAT: -143.7905
 CYCLE:   144 TIME:   0.062 TIME LEFT:  2.00D  GRAD.:     6.144 HEAT: -143.8242
 CYCLE:   145 TIME:   0.070 TIME LEFT:  2.00D  GRAD.:     7.876 HEAT: -143.8715
 CYCLE:   146 TIME:   0.078 TIME LEFT:  2.00D  GRAD.:    10.082 HEAT: -143.9204
 CYCLE:   147 TIME:   0.070 TIME LEFT:  2.00D  GRAD.:     8.974 HEAT: -143.9807
 CYCLE:   148 TIME:   0.070 TIME LEFT:  2.00D  GRAD.:     8.402 HEAT: -144.0427
 CYCLE:   149 TIME:   0.070 TIME LEFT:  2.00D  GRAD.:    15.917 HEAT: -144.0548
 CYCLE:   150 TIME:   0.070 TIME LEFT:  2.00D  GRAD.:    10.180 HEAT: -144.1241
 CYCLE:   151 TIME:   0.078 TIME LEFT:  2.00D  GRAD.:     8.037 HEAT: -144.1633
 CYCLE:   152 TIME:   0.062 TIME LEFT:  2.00D  GRAD.:     6.423 HEAT: -144.1953
 CYCLE:   153 TIME:   0.078 TIME LEFT:  2.00D  GRAD.:     7.764 HEAT: -144.2345
 CYCLE:   154 TIME:   0.070 TIME LEFT:  2.00D  GRAD.:    19.157 HEAT: -144.2808
 CYCLE:   155 TIME:   0.062 TIME LEFT:  2.00D  GRAD.:     6.968 HEAT: -144.3498
 CYCLE:   156 TIME:   0.070 TIME LEFT:  2.00D  GRAD.:     4.821 HEAT: -144.3754
 CYCLE:   157 TIME:   0.070 TIME LEFT:  2.00D  GRAD.:     6.522 HEAT: -144.4168
 CYCLE:   158 TIME:   0.070 TIME LEFT:  2.00D  GRAD.:     7.853 HEAT: -144.4635
 CYCLE:   159 TIME:   0.070 TIME LEFT:  2.00D  GRAD.:     8.815 HEAT: -144.5183
 CYCLE:   160 TIME:   0.070 TIME LEFT:  2.00D  GRAD.:     8.302 HEAT: -144.5636
 CYCLE:   161 TIME:   0.070 TIME LEFT:  2.00D  GRAD.:     6.793 HEAT: -144.6012
 CYCLE:   162 TIME:   0.062 TIME LEFT:  2.00D  GRAD.:     7.212 HEAT: -144.6458
 CYCLE:   163 TIME:   0.078 TIME LEFT:  2.00D  GRAD.:    10.219 HEAT: -144.6881
 CYCLE:   164 TIME:   0.062 TIME LEFT:  2.00D  GRAD.:     7.275 HEAT: -144.7366
 CYCLE:   165 TIME:   0.078 TIME LEFT:  2.00D  GRAD.:     7.190 HEAT: -144.7912
 CYCLE:   166 TIME:   0.062 TIME LEFT:  2.00D  GRAD.:    11.238 HEAT: -144.8383
 CYCLE:   167 TIME:   0.070 TIME LEFT:  2.00D  GRAD.:     8.023 HEAT: -144.8994
 CYCLE:   168 TIME:   0.070 TIME LEFT:  2.00D  GRAD.:     8.992 HEAT: -144.9578
 CYCLE:   169 TIME:   0.070 TIME LEFT:  2.00D  GRAD.:    14.860 HEAT: -145.0096
 CYCLE:   170 TIME:   0.289 TIME LEFT:  2.00D  GRAD.:     8.242 HEAT: -145.0680
 CYCLE:   171 TIME:   0.070 TIME LEFT:  2.00D  GRAD.:     6.907 HEAT: -145.1330
 CYCLE:   172 TIME:   0.070 TIME LEFT:  2.00D  GRAD.:     7.817 HEAT: -145.1803
 CYCLE:   173 TIME:   0.070 TIME LEFT:  2.00D  GRAD.:    12.481 HEAT: -145.2418
 CYCLE:   174 TIME:   0.070 TIME LEFT:  2.00D  GRAD.:    10.896 HEAT: -145.3197
 CYCLE:   175 TIME:   0.070 TIME LEFT:  2.00D  GRAD.:     7.956 HEAT: -145.3842
 CYCLE:   176 TIME:   0.062 TIME LEFT:  2.00D  GRAD.:     8.442 HEAT: -145.4627
 CYCLE:   177 TIME:   0.078 TIME LEFT:  2.00D  GRAD.:    11.973 HEAT: -145.5202
 CYCLE:   178 TIME:   0.062 TIME LEFT:  2.00D  GRAD.:    11.058 HEAT: -145.5782
 CYCLE:   179 TIME:   0.070 TIME LEFT:  2.00D  GRAD.:     8.298 HEAT: -145.6351
 CYCLE:   180 TIME:   0.070 TIME LEFT:  2.00D  GRAD.:     9.311 HEAT: -145.6949
 CYCLE:   181 TIME:   0.070 TIME LEFT:  2.00D  GRAD.:    14.976 HEAT: -145.7464
 CYCLE:   182 TIME:   0.070 TIME LEFT:  2.00D  GRAD.:     7.387 HEAT: -145.8056
 CYCLE:   183 TIME:   0.070 TIME LEFT:  2.00D  GRAD.:     7.129 HEAT: -145.8487
 CYCLE:   184 TIME:   0.062 TIME LEFT:  2.00D  GRAD.:     8.279 HEAT: -145.8910
 CYCLE:   185 TIME:   0.070 TIME LEFT:  2.00D  GRAD.:    14.499 HEAT: -145.9573
 CYCLE:   186 TIME:   0.070 TIME LEFT:  2.00D  GRAD.:    13.981 HEAT: -146.0182
 CYCLE:   187 TIME:   0.070 TIME LEFT:  2.00D  GRAD.:     7.503 HEAT: -146.0901
 CYCLE:   188 TIME:   0.062 TIME LEFT:  2.00D  GRAD.:     6.837 HEAT: -146.1531
 CYCLE:   189 TIME:   0.078 TIME LEFT:  2.00D  GRAD.:    11.077 HEAT: -146.1927
 CYCLE:   190 TIME:   0.070 TIME LEFT:  2.00D  GRAD.:    13.361 HEAT: -146.2767
 CYCLE:   191 TIME:   0.070 TIME LEFT:  2.00D  GRAD.:     9.095 HEAT: -146.3516
 CYCLE:   192 TIME:   0.078 TIME LEFT:  2.00D  GRAD.:     8.300 HEAT: -146.3983
 CYCLE:   193 TIME:   0.062 TIME LEFT:  2.00D  GRAD.:    12.671 HEAT: -146.4421
 CYCLE:   194 TIME:   0.078 TIME LEFT:  2.00D  GRAD.:    10.163 HEAT: -146.5030
 CYCLE:   195 TIME:   0.070 TIME LEFT:  2.00D  GRAD.:    11.510 HEAT: -146.5927
 CYCLE:   196 TIME:   0.062 TIME LEFT:  2.00D  GRAD.:    10.217 HEAT: -146.6451
 CYCLE:   197 TIME:   0.070 TIME LEFT:  2.00D  GRAD.:     8.154 HEAT: -146.6908
 CYCLE:   198 TIME:   0.070 TIME LEFT:  2.00D  GRAD.:     9.543 HEAT: -146.7795
 CYCLE:   199 TIME:   0.070 TIME LEFT:  2.00D  GRAD.:    14.248 HEAT: -146.7976
 CYCLE:   200 TIME:   0.070 TIME LEFT:  2.00D  GRAD.:     7.819 HEAT: -146.8343
 CYCLE:   201 TIME:   0.078 TIME LEFT:  2.00D  GRAD.:     7.430 HEAT: -146.8711
 CYCLE:   202 TIME:   0.070 TIME LEFT:  2.00D  GRAD.:     6.339 HEAT: -146.9065
 CYCLE:   203 TIME:   0.070 TIME LEFT:  2.00D  GRAD.:     8.849 HEAT: -146.9393
 CYCLE:   204 TIME:   0.070 TIME LEFT:  2.00D  GRAD.:    20.302 HEAT: -146.9192
 CYCLE:   205 TIME:   0.070 TIME LEFT:  2.00D  GRAD.:     6.761 HEAT: -147.0001
 CYCLE:   206 TIME:   0.070 TIME LEFT:  2.00D  GRAD.:     4.094 HEAT: -147.0188
 CYCLE:   207 TIME:   0.078 TIME LEFT:  2.00D  GRAD.:     9.951 HEAT: -147.0243
 CYCLE:   208 TIME:   0.070 TIME LEFT:  2.00D  GRAD.:     6.101 HEAT: -147.0650
 CYCLE:   209 TIME:   0.070 TIME LEFT:  2.00D  GRAD.:     4.741 HEAT: -147.0876
 CYCLE:   210 TIME:   0.062 TIME LEFT:  2.00D  GRAD.:     4.706 HEAT: -147.1110
 CYCLE:   211 TIME:   0.078 TIME LEFT:  2.00D  GRAD.:     9.045 HEAT: -147.1280
 CYCLE:   212 TIME:   0.070 TIME LEFT:  2.00D  GRAD.:    16.707 HEAT: -147.1489
 CYCLE:   213 TIME:   0.062 TIME LEFT:  2.00D  GRAD.:     4.554 HEAT: -147.1968
 CYCLE:   214 TIME:   0.070 TIME LEFT:  2.00D  GRAD.:     3.676 HEAT: -147.2148
 CYCLE:   215 TIME:   0.078 TIME LEFT:  2.00D  GRAD.:    10.800 HEAT: -147.2027
 CYCLE:   216 TIME:   0.078 TIME LEFT:  2.00D  GRAD.:     5.653 HEAT: -147.2581
 CYCLE:   217 TIME:   0.070 TIME LEFT:  2.00D  GRAD.:     9.727 HEAT: -147.2752
 CYCLE:   218 TIME:   0.070 TIME LEFT:  2.00D  GRAD.:     4.879 HEAT: -147.3011
 CYCLE:   219 TIME:   0.070 TIME LEFT:  2.00D  GRAD.:     4.349 HEAT: -147.3188
 CYCLE:   220 TIME:   0.078 TIME LEFT:  2.00D  GRAD.:     5.873 HEAT: -147.3359
 CYCLE:   221 TIME:   0.070 TIME LEFT:  2.00D  GRAD.:     7.048 HEAT: -147.3540
 CYCLE:   222 TIME:   0.062 TIME LEFT:  2.00D  GRAD.:     3.900 HEAT: -147.3723
 CYCLE:   223 TIME:   0.070 TIME LEFT:  2.00D  GRAD.:     3.892 HEAT: -147.3872
 CYCLE:   224 TIME:   0.070 TIME LEFT:  2.00D  GRAD.:     5.822 HEAT: -147.4024
 CYCLE:   225 TIME:   0.070 TIME LEFT:  2.00D  GRAD.:     5.638 HEAT: -147.4200
 CYCLE:   226 TIME:   0.070 TIME LEFT:  2.00D  GRAD.:     5.247 HEAT: -147.4353
 CYCLE:   227 TIME:   0.070 TIME LEFT:  2.00D  GRAD.:     5.269 HEAT: -147.4525
 CYCLE:   228 TIME:   0.062 TIME LEFT:  2.00D  GRAD.:     9.648 HEAT: -147.4706
 CYCLE:   229 TIME:   0.070 TIME LEFT:  2.00D  GRAD.:     4.083 HEAT: -147.4941
 CYCLE:   230 TIME:   0.070 TIME LEFT:  2.00D  GRAD.:     4.110 HEAT: -147.5059
 CYCLE:   231 TIME:   0.070 TIME LEFT:  2.00D  GRAD.:     6.645 HEAT: -147.5180
 CYCLE:   232 TIME:   0.062 TIME LEFT:  2.00D  GRAD.:     6.505 HEAT: -147.5396
 CYCLE:   233 TIME:   0.078 TIME LEFT:  2.00D  GRAD.:     6.547 HEAT: -147.5563
 CYCLE:   234 TIME:   0.070 TIME LEFT:  2.00D  GRAD.:     9.582 HEAT: -147.5596
 CYCLE:   235 TIME:   0.062 TIME LEFT:  2.00D  GRAD.:     4.133 HEAT: -147.5860
 CYCLE:   236 TIME:   0.078 TIME LEFT:  2.00D  GRAD.:     4.694 HEAT: -147.5873
 CYCLE:   237 TIME:   0.070 TIME LEFT:  2.00D  GRAD.:     2.959 HEAT: -147.6072
 CYCLE:   238 TIME:   0.078 TIME LEFT:  2.00D  GRAD.:     6.914 HEAT: -147.6070
 CYCLE:   239 TIME:   0.078 TIME LEFT:  2.00D  GRAD.:    18.847 HEAT: -147.5489
 CYCLE:   240 TIME:   0.078 TIME LEFT:  2.00D  GRAD.:    29.696 HEAT: -147.4516
 CYCLE:   241 TIME:   0.070 TIME LEFT:  2.00D  GRAD.:    13.545 HEAT: -147.6037
 CYCLE:   242 TIME:   0.078 TIME LEFT:  2.00D  GRAD.:     5.824 HEAT: -147.6127
 CYCLE:   243 TIME:   0.078 TIME LEFT:  2.00D  GRAD.:     5.380 HEAT: -147.6469
 CYCLE:   244 TIME:   0.070 TIME LEFT:  2.00D  GRAD.:     5.621 HEAT: -147.6548
 CYCLE:   245 TIME:   0.062 TIME LEFT:  2.00D  GRAD.:     2.091 HEAT: -147.6613
 CYCLE:   246 TIME:   0.078 TIME LEFT:  2.00D  GRAD.:     1.897 HEAT: -147.6695
 CYCLE:   247 TIME:   0.078 TIME LEFT:  2.00D  GRAD.:    13.061 HEAT: -147.6134
 CYCLE:   248 TIME:   0.070 TIME LEFT:  2.00D  GRAD.:     5.737 HEAT: -147.6938
 CYCLE:   249 TIME:   0.070 TIME LEFT:  2.00D  GRAD.:    10.945 HEAT: -147.6860
 CYCLE:   250 TIME:   0.070 TIME LEFT:  2.00D  GRAD.:     2.545 HEAT: -147.7055
 CYCLE:   251 TIME:   0.062 TIME LEFT:  2.00D  GRAD.:     2.179 HEAT: -147.7098
 CYCLE:   252 TIME:   0.078 TIME LEFT:  2.00D  GRAD.:     6.438 HEAT: -147.7189
 CYCLE:   253 TIME:   0.070 TIME LEFT:  2.00D  GRAD.:     4.355 HEAT: -147.7368
 CYCLE:   254 TIME:   0.062 TIME LEFT:  2.00D  GRAD.:     7.950 HEAT: -147.7441
 CYCLE:   255 TIME:   0.070 TIME LEFT:  2.00D  GRAD.:     2.895 HEAT: -147.7636
 CYCLE:   256 TIME:   0.078 TIME LEFT:  2.00D  GRAD.:     7.543 HEAT: -147.7737
 CYCLE:   257 TIME:   0.062 TIME LEFT:  2.00D  GRAD.:     3.692 HEAT: -147.7835
 CYCLE:   258 TIME:   0.070 TIME LEFT:  2.00D  GRAD.:     3.805 HEAT: -147.7920
 CYCLE:   259 TIME:   0.078 TIME LEFT:  2.00D  GRAD.:     5.432 HEAT: -147.7952
 CYCLE:   260 TIME:   0.070 TIME LEFT:  2.00D  GRAD.:     5.022 HEAT: -147.8000
 CYCLE:   261 TIME:   0.070 TIME LEFT:  2.00D  GRAD.:     4.736 HEAT: -147.7962
 CYCLE:   262 TIME:   0.070 TIME LEFT:  2.00D  GRAD.:    19.528 HEAT: -147.7700
 CYCLE:   263 TIME:   0.070 TIME LEFT:  2.00D  GRAD.:     5.934 HEAT: -147.8339
 CYCLE:   264 TIME:   0.070 TIME LEFT:  2.00D  GRAD.:     2.674 HEAT: -147.8369
 CYCLE:   265 TIME:   0.078 TIME LEFT:  2.00D  GRAD.:     2.235 HEAT: -147.8474
 CYCLE:   266 TIME:   0.070 TIME LEFT:  2.00D  GRAD.:    14.173 HEAT: -147.8219
 CYCLE:   267 TIME:   0.078 TIME LEFT:  2.00D  GRAD.:    10.620 HEAT: -147.8399
 CYCLE:   268 TIME:   0.078 TIME LEFT:  2.00D  GRAD.:    28.050 HEAT: -147.7400
 CYCLE:   269 TIME:   0.078 TIME LEFT:  2.00D  GRAD.:    25.259 HEAT: -147.7469
 CYCLE:   270 TIME:   0.078 TIME LEFT:  2.00D  GRAD.:    58.957 HEAT: -147.3029
 CYCLE:   271 TIME:   0.078 TIME LEFT:  2.00D  GRAD.:   132.078 HEAT: -144.0800
 CYCLE:   272 TIME:   0.078 TIME LEFT:  2.00D  GRAD.:   125.552 HEAT: -145.0026
 CYCLE:   273 TIME:   0.078 TIME LEFT:  2.00D  GRAD.:    59.916 HEAT: -146.9650
 CYCLE:   274 TIME:   0.086 TIME LEFT:  2.00D  GRAD.:   371.561 HEAT: -127.7741
 CYCLE:   275 TIME:   0.086 TIME LEFT:  2.00D  GRAD.:    65.156 HEAT: -147.1806
 CYCLE:   276 TIME:   0.078 TIME LEFT:  2.00D  GRAD.:   153.706 HEAT: -143.1419
 CYCLE:   277 TIME:   0.086 TIME LEFT:  2.00D  GRAD.:     8.766 HEAT: -147.8366
 CYCLE:   278 TIME:   0.078 TIME LEFT:  2.00D  GRAD.:    24.497 HEAT: -147.4508
 CYCLE:   279 TIME:   0.078 TIME LEFT:  2.00D  GRAD.:     8.971 HEAT: -147.8779
 CYCLE:   280 TIME:   0.070 TIME LEFT:  2.00D  GRAD.:    35.095 HEAT: -147.6977
 CYCLE:   281 TIME:   0.070 TIME LEFT:  2.00D  GRAD.:     2.820 HEAT: -147.8937
 CYCLE:   282 TIME:   0.070 TIME LEFT:  2.00D  GRAD.:     2.648 HEAT: -147.8993
 CYCLE:   283 TIME:   0.078 TIME LEFT:  2.00D  GRAD.:     4.253 HEAT: -147.9080
 CYCLE:   284 TIME:   0.070 TIME LEFT:  2.00D  GRAD.:     6.606 HEAT: -147.9178
 CYCLE:   285 TIME:   0.070 TIME LEFT:  2.00D  GRAD.:     8.273 HEAT: -147.9302
 CYCLE:   286 TIME:   0.062 TIME LEFT:  2.00D  GRAD.:     4.006 HEAT: -147.9597
 CYCLE:   287 TIME:   0.078 TIME LEFT:  2.00D  GRAD.:     4.389 HEAT: -147.9650
 CYCLE:   288 TIME:   0.070 TIME LEFT:  2.00D  GRAD.:     2.769 HEAT: -147.9731
 CYCLE:   289 TIME:   0.078 TIME LEFT:  2.00D  GRAD.:    12.366 HEAT: -147.9592
 CYCLE:   290 TIME:   0.070 TIME LEFT:  2.00D  GRAD.:     4.817 HEAT: -147.9892
 CYCLE:   291 TIME:   0.062 TIME LEFT:  2.00D  GRAD.:     3.223 HEAT: -147.9921
 CYCLE:   292 TIME:   0.070 TIME LEFT:  2.00D  GRAD.:     2.768 HEAT: -147.9997
 CYCLE:   293 TIME:   0.078 TIME LEFT:  2.00D  GRAD.:     9.416 HEAT: -148.0027
 CYCLE:   294 TIME:   0.070 TIME LEFT:  2.00D  GRAD.:    14.047 HEAT: -147.9731
 CYCLE:   295 TIME:   0.078 TIME LEFT:  2.00D  GRAD.:    15.240 HEAT: -147.9840
 CYCLE:   296 TIME:   0.070 TIME LEFT:  2.00D  GRAD.:    11.732 HEAT: -148.0117
 CYCLE:   297 TIME:   0.078 TIME LEFT:  2.00D  GRAD.:     2.152 HEAT: -148.0293
 CYCLE:   298 TIME:   0.078 TIME LEFT:  2.00D  GRAD.:     5.127 HEAT: -148.0426
 CYCLE:   299 TIME:   0.062 TIME LEFT:  2.00D  GRAD.:     3.892 HEAT: -148.0511
 CYCLE:   300 TIME:   0.070 TIME LEFT:  2.00D  GRAD.:     5.685 HEAT: -148.0652
 CYCLE:   301 TIME:   0.070 TIME LEFT:  2.00D  GRAD.:     4.662 HEAT: -148.0749
 CYCLE:   302 TIME:   0.070 TIME LEFT:  2.00D  GRAD.:     7.111 HEAT: -148.0847
 CYCLE:   303 TIME:   0.070 TIME LEFT:  2.00D  GRAD.:     5.925 HEAT: -148.0980
 CYCLE:   304 TIME:   0.070 TIME LEFT:  2.00D  GRAD.:     4.189 HEAT: -148.1096
 CYCLE:   305 TIME:   0.070 TIME LEFT:  2.00D  GRAD.:     3.179 HEAT: -148.1208
 CYCLE:   306 TIME:   0.070 TIME LEFT:  2.00D  GRAD.:    10.210 HEAT: -148.1084
 CYCLE:   307 TIME:   0.086 TIME LEFT:  2.00D  GRAD.:    12.942 HEAT: -148.1126
 CYCLE:   308 TIME:   0.070 TIME LEFT:  2.00D  GRAD.:     7.011 HEAT: -148.1416
 CYCLE:   309 TIME:   0.070 TIME LEFT:  2.00D  GRAD.:     4.620 HEAT: -148.1585
 CYCLE:   310 TIME:   0.070 TIME LEFT:  2.00D  GRAD.:     4.993 HEAT: -148.1719
 CYCLE:   311 TIME:   0.078 TIME LEFT:  2.00D  GRAD.:     8.615 HEAT: -148.1761
 CYCLE:   312 TIME:   0.070 TIME LEFT:  2.00D  GRAD.:    24.179 HEAT: -148.1145
 CYCLE:   313 TIME:   0.070 TIME LEFT:  2.00D  GRAD.:     6.385 HEAT: -148.2193
 CYCLE:   314 TIME:   0.070 TIME LEFT:  2.00D  GRAD.:     3.884 HEAT: -148.2403
 CYCLE:   315 TIME:   0.078 TIME LEFT:  2.00D  GRAD.:     8.815 HEAT: -148.2228
 CYCLE:   316 TIME:   0.070 TIME LEFT:  2.00D  GRAD.:    12.171 HEAT: -148.2755
 CYCLE:   317 TIME:   0.078 TIME LEFT:  2.00D  GRAD.:     8.516 HEAT: -148.2928
 CYCLE:   318 TIME:   0.062 TIME LEFT:  2.00D  GRAD.:     3.059 HEAT: -148.3161
 CYCLE:   319 TIME:   0.078 TIME LEFT:  2.00D  GRAD.:    20.325 HEAT: -148.2767
 CYCLE:   320 TIME:   0.078 TIME LEFT:  2.00D  GRAD.:     3.649 HEAT: -148.3377
 CYCLE:   321 TIME:   0.070 TIME LEFT:  2.00D  GRAD.:     4.836 HEAT: -148.3570
 CYCLE:   322 TIME:   0.070 TIME LEFT:  2.00D  GRAD.:     9.084 HEAT: -148.3803
 CYCLE:   323 TIME:   0.070 TIME LEFT:  2.00D  GRAD.:    13.508 HEAT: -148.3811
 CYCLE:   324 TIME:   0.070 TIME LEFT:  2.00D  GRAD.:     8.671 HEAT: -148.4333
 CYCLE:   325 TIME:   0.070 TIME LEFT:  2.00D  GRAD.:     8.459 HEAT: -148.4840
 CYCLE:   326 TIME:   0.070 TIME LEFT:  2.00D  GRAD.:     7.546 HEAT: -148.5282
 CYCLE:   327 TIME:   0.078 TIME LEFT:  2.00D  GRAD.:    14.473 HEAT: -148.4769
 CYCLE:   328 TIME:   0.078 TIME LEFT:  2.00D  GRAD.:    14.197 HEAT: -148.5170
 CYCLE:   329 TIME:   0.070 TIME LEFT:  2.00D  GRAD.:    29.499 HEAT: -148.4763
 CYCLE:   330 TIME:   0.078 TIME LEFT:  2.00D  GRAD.:     6.416 HEAT: -148.6125
 CYCLE:   331 TIME:   0.070 TIME LEFT:  2.00D  GRAD.:     4.407 HEAT: -148.6364
 CYCLE:   332 TIME:   0.070 TIME LEFT:  2.00D  GRAD.:    11.169 HEAT: -148.6509
 CYCLE:   333 TIME:   0.078 TIME LEFT:  2.00D  GRAD.:    12.307 HEAT: -148.6794
 CYCLE:   334 TIME:   0.062 TIME LEFT:  2.00D  GRAD.:    10.741 HEAT: -148.7038
 CYCLE:   335 TIME:   0.070 TIME LEFT:  2.00D  GRAD.:     3.346 HEAT: -148.7290
 CYCLE:   336 TIME:   0.078 TIME LEFT:  2.00D  GRAD.:     8.151 HEAT: -148.7364
 CYCLE:   337 TIME:   0.062 TIME LEFT:  2.00D  GRAD.:     4.499 HEAT: -148.7614
 CYCLE:   338 TIME:   0.070 TIME LEFT:  2.00D  GRAD.:     5.677 HEAT: -148.7725
 CYCLE:   339 TIME:   0.062 TIME LEFT:  2.00D  GRAD.:     3.115 HEAT: -148.7891
 CYCLE:   340 TIME:   0.086 TIME LEFT:  2.00D  GRAD.:    13.535 HEAT: -148.7805
 CYCLE:   341 TIME:   0.078 TIME LEFT:  2.00D  GRAD.:     4.020 HEAT: -148.8149
 CYCLE:   342 TIME:   0.062 TIME LEFT:  2.00D  GRAD.:     2.681 HEAT: -148.8193
 CYCLE:   343 TIME:   0.070 TIME LEFT:  2.00D  GRAD.:     3.965 HEAT: -148.8286
 CYCLE:   344 TIME:   0.078 TIME LEFT:  2.00D  GRAD.:    12.660 HEAT: -148.8263
 CYCLE:   345 TIME:   0.078 TIME LEFT:  2.00D  GRAD.:     6.326 HEAT: -148.8578
 CYCLE:   346 TIME:   0.062 TIME LEFT:  2.00D  GRAD.:     4.648 HEAT: -148.8682
 CYCLE:   347 TIME:   0.070 TIME LEFT:  2.00D  GRAD.:     7.282 HEAT: -148.8926
 CYCLE:   348 TIME:   0.078 TIME LEFT:  2.00D  GRAD.:    12.944 HEAT: -148.9236
 CYCLE:   349 TIME:   0.070 TIME LEFT:  2.00D  GRAD.:    11.839 HEAT: -148.9547
 CYCLE:   350 TIME:   0.070 TIME LEFT:  2.00D  GRAD.:     6.105 HEAT: -148.9834
 CYCLE:   351 TIME:   0.070 TIME LEFT:  2.00D  GRAD.:     6.489 HEAT: -149.0172
 CYCLE:   352 TIME:   0.070 TIME LEFT:  2.00D  GRAD.:    11.366 HEAT: -149.0319
 CYCLE:   353 TIME:   0.070 TIME LEFT:  2.00D  GRAD.:     9.833 HEAT: -149.0730
 CYCLE:   354 TIME:   0.062 TIME LEFT:  2.00D  GRAD.:     9.640 HEAT: -149.0970
 CYCLE:   355 TIME:   0.070 TIME LEFT:  2.00D  GRAD.:     4.487 HEAT: -149.1261
 CYCLE:   356 TIME:   0.086 TIME LEFT:  2.00D  GRAD.:    10.616 HEAT: -149.1095
 CYCLE:   357 TIME:   0.070 TIME LEFT:  2.00D  GRAD.:    10.762 HEAT: -149.1500
 CYCLE:   358 TIME:   0.070 TIME LEFT:  2.00D  GRAD.:     4.006 HEAT: -149.1727
 CYCLE:   359 TIME:   0.062 TIME LEFT:  2.00D  GRAD.:     3.379 HEAT: -149.1851
 CYCLE:   360 TIME:   0.078 TIME LEFT:  2.00D  GRAD.:    10.439 HEAT: -149.2028
 CYCLE:   361 TIME:   0.086 TIME LEFT:  2.00D  GRAD.:    28.111 HEAT: -149.0863
 CYCLE:   362 TIME:   0.070 TIME LEFT:  2.00D  GRAD.:    16.979 HEAT: -149.1933
 CYCLE:   363 TIME:   0.078 TIME LEFT:  2.00D  GRAD.:    18.926 HEAT: -149.2271
 CYCLE:   364 TIME:   0.070 TIME LEFT:  2.00D  GRAD.:     5.157 HEAT: -149.2448
 CYCLE:   365 TIME:   0.078 TIME LEFT:  2.00D  GRAD.:    13.334 HEAT: -149.2597
 CYCLE:   366 TIME:   0.070 TIME LEFT:  2.00D  GRAD.:     4.857 HEAT: -149.3127
 CYCLE:   367 TIME:   0.062 TIME LEFT:  2.00D  GRAD.:     4.821 HEAT: -149.3287
 CYCLE:   368 TIME:   0.094 TIME LEFT:  2.00D  GRAD.:    22.101 HEAT: -149.3203
 CYCLE:   369 TIME:   0.070 TIME LEFT:  2.00D  GRAD.:     8.063 HEAT: -149.3866
 CYCLE:   370 TIME:   0.062 TIME LEFT:  2.00D  GRAD.:     4.377 HEAT: -149.4088
 CYCLE:   371 TIME:   0.078 TIME LEFT:  2.00D  GRAD.:     8.364 HEAT: -149.4479
 CYCLE:   372 TIME:   0.070 TIME LEFT:  2.00D  GRAD.:     9.457 HEAT: -149.4770
 CYCLE:   373 TIME:   0.078 TIME LEFT:  2.00D  GRAD.:    20.721 HEAT: -149.4924
 CYCLE:   374 TIME:   0.078 TIME LEFT:  2.00D  GRAD.:     6.487 HEAT: -149.5970
 CYCLE:   375 TIME:   0.062 TIME LEFT:  2.00D  GRAD.:     4.799 HEAT: -149.6182
 CYCLE:   376 TIME:   0.078 TIME LEFT:  2.00D  GRAD.:     9.968 HEAT: -149.6545
 CYCLE:   377 TIME:   0.062 TIME LEFT:  2.00D  GRAD.:     9.473 HEAT: -149.6941
 CYCLE:   378 TIME:   0.070 TIME LEFT:  2.00D  GRAD.:     4.774 HEAT: -149.7387
 CYCLE:   379 TIME:   0.078 TIME LEFT:  2.00D  GRAD.:     6.356 HEAT: -149.7712
 CYCLE:   380 TIME:   0.070 TIME LEFT:  2.00D  GRAD.:    11.139 HEAT: -149.7790
 CYCLE:   381 TIME:   0.070 TIME LEFT:  2.00D  GRAD.:     6.522 HEAT: -149.8440
 CYCLE:   382 TIME:   0.062 TIME LEFT:  2.00D  GRAD.:     5.860 HEAT: -149.8869
 CYCLE:   383 TIME:   0.078 TIME LEFT:  2.00D  GRAD.:    12.482 HEAT: -149.9041
 CYCLE:   384 TIME:   0.062 TIME LEFT:  2.00D  GRAD.:     6.337 HEAT: -149.9347
 CYCLE:   385 TIME:   0.070 TIME LEFT:  2.00D  GRAD.:     6.959 HEAT: -149.9612
 CYCLE:   386 TIME:   0.062 TIME LEFT:  2.00D  GRAD.:     5.506 HEAT: -149.9849
 CYCLE:   387 TIME:   0.070 TIME LEFT:  2.00D  GRAD.:     8.986 HEAT: -149.9779
 CYCLE:   388 TIME:   0.086 TIME LEFT:  2.00D  GRAD.:    42.502 HEAT: -149.7628
 CYCLE:   389 TIME:   0.070 TIME LEFT:  2.00D  GRAD.:    23.696 HEAT: -149.9203
 CYCLE:   390 TIME:   0.070 TIME LEFT:  2.00D  GRAD.:    12.441 HEAT: -149.9766
 CYCLE:   391 TIME:   0.078 TIME LEFT:  2.00D  GRAD.:    17.769 HEAT: -150.0218
 CYCLE:   392 TIME:   0.156 TIME LEFT:  2.00D  GRAD.:     7.354 HEAT: -150.0847
 CYCLE:   393 TIME:   0.070 TIME LEFT:  2.00D  GRAD.:     4.089 HEAT: -150.1084
 CYCLE:   394 TIME:   0.070 TIME LEFT:  2.00D  GRAD.:     4.846 HEAT: -150.1133
 CYCLE:   395 TIME:   0.062 TIME LEFT:  2.00D  GRAD.:     5.015 HEAT: -150.1357
 CYCLE:   396 TIME:   0.078 TIME LEFT:  2.00D  GRAD.:    18.034 HEAT: -150.0986
 CYCLE:   397 TIME:   0.070 TIME LEFT:  2.00D  GRAD.:     8.289 HEAT: -150.1704
 CYCLE:   398 TIME:   0.070 TIME LEFT:  2.00D  GRAD.:     6.831 HEAT: -150.1787
 CYCLE:   399 TIME:   0.070 TIME LEFT:  2.00D  GRAD.:     3.692 HEAT: -150.1920
 CYCLE:   400 TIME:   0.070 TIME LEFT:  2.00D  GRAD.:    10.483 HEAT: -150.1990
 CYCLE:   401 TIME:   0.078 TIME LEFT:  2.00D  GRAD.:     5.169 HEAT: -150.2299
 CYCLE:   402 TIME:   0.062 TIME LEFT:  2.00D  GRAD.:     3.684 HEAT: -150.2529
 CYCLE:   403 TIME:   0.070 TIME LEFT:  2.00D  GRAD.:     6.260 HEAT: -150.2885
 CYCLE:   404 TIME:   0.078 TIME LEFT:  2.00D  GRAD.:     8.364 HEAT: -150.3215
 CYCLE:   405 TIME:   0.070 TIME LEFT:  2.00D  GRAD.:    11.971 HEAT: -150.3041
 CYCLE:   406 TIME:   0.109 TIME LEFT:  2.00D  GRAD.:     7.491 HEAT: -150.3651
 CYCLE:   407 TIME:   0.070 TIME LEFT:  2.00D  GRAD.:     3.841 HEAT: -150.3812
 CYCLE:   408 TIME:   0.070 TIME LEFT:  2.00D  GRAD.:     2.851 HEAT: -150.3923
 CYCLE:   409 TIME:   0.078 TIME LEFT:  2.00D  GRAD.:    16.596 HEAT: -150.3745
 CYCLE:   410 TIME:   0.070 TIME LEFT:  2.00D  GRAD.:     5.446 HEAT: -150.4324
 CYCLE:   411 TIME:   0.070 TIME LEFT:  2.00D  GRAD.:     2.877 HEAT: -150.4410
 CYCLE:   412 TIME:   0.062 TIME LEFT:  2.00D  GRAD.:     3.308 HEAT: -150.4531
 CYCLE:   413 TIME:   0.070 TIME LEFT:  2.00D  GRAD.:     6.271 HEAT: -150.4708
 CYCLE:   414 TIME:   0.070 TIME LEFT:  2.00D  GRAD.:    10.946 HEAT: -150.4724
 CYCLE:   415 TIME:   0.070 TIME LEFT:  2.00D  GRAD.:     4.581 HEAT: -150.4920
 CYCLE:   416 TIME:   0.070 TIME LEFT:  2.00D  GRAD.:     3.029 HEAT: -150.5050
 CYCLE:   417 TIME:   0.070 TIME LEFT:  2.00D  GRAD.:     4.139 HEAT: -150.5140
 CYCLE:   418 TIME:   0.070 TIME LEFT:  2.00D  GRAD.:     7.183 HEAT: -150.5289
 CYCLE:   419 TIME:   0.070 TIME LEFT:  2.00D  GRAD.:     4.577 HEAT: -150.5421
 CYCLE:   420 TIME:   0.070 TIME LEFT:  2.00D  GRAD.:     3.033 HEAT: -150.5580
 CYCLE:   421 TIME:   0.078 TIME LEFT:  2.00D  GRAD.:     5.356 HEAT: -150.5679
 CYCLE:   422 TIME:   0.070 TIME LEFT:  2.00D  GRAD.:     7.385 HEAT: -150.5817
 CYCLE:   423 TIME:   0.070 TIME LEFT:  2.00D  GRAD.:     3.952 HEAT: -150.5947
 CYCLE:   424 TIME:   0.070 TIME LEFT:  2.00D  GRAD.:     3.619 HEAT: -150.6075
 CYCLE:   425 TIME:   0.070 TIME LEFT:  2.00D  GRAD.:     4.839 HEAT: -150.6242
 CYCLE:   426 TIME:   0.070 TIME LEFT:  2.00D  GRAD.:     7.813 HEAT: -150.6430
 CYCLE:   427 TIME:   0.070 TIME LEFT:  2.00D  GRAD.:     5.046 HEAT: -150.6669
 CYCLE:   428 TIME:   0.070 TIME LEFT:  2.00D  GRAD.:     4.834 HEAT: -150.6888
 CYCLE:   429 TIME:   0.062 TIME LEFT:  2.00D  GRAD.:     6.380 HEAT: -150.6985
 CYCLE:   430 TIME:   0.070 TIME LEFT:  2.00D  GRAD.:     4.246 HEAT: -150.7108
 CYCLE:   431 TIME:   0.070 TIME LEFT:  2.00D  GRAD.:     3.793 HEAT: -150.7249
 CYCLE:   432 TIME:   0.062 TIME LEFT:  2.00D  GRAD.:     4.425 HEAT: -150.7333
 CYCLE:   433 TIME:   0.070 TIME LEFT:  2.00D  GRAD.:     4.458 HEAT: -150.7434
 CYCLE:   434 TIME:   0.070 TIME LEFT:  2.00D  GRAD.:     5.755 HEAT: -150.7549
 CYCLE:   435 TIME:   0.062 TIME LEFT:  2.00D  GRAD.:     4.092 HEAT: -150.7648
 CYCLE:   436 TIME:   0.070 TIME LEFT:  2.00D  GRAD.:     3.463 HEAT: -150.7731
 CYCLE:   437 TIME:   0.070 TIME LEFT:  2.00D  GRAD.:     4.162 HEAT: -150.7845
 CYCLE:   438 TIME:   0.070 TIME LEFT:  2.00D  GRAD.:     7.504 HEAT: -150.7930
 CYCLE:   439 TIME:   0.070 TIME LEFT:  2.00D  GRAD.:     4.922 HEAT: -150.8042
 CYCLE:   440 TIME:   0.070 TIME LEFT:  2.00D  GRAD.:     3.968 HEAT: -150.8125
 CYCLE:   441 TIME:   0.070 TIME LEFT:  2.00D  GRAD.:     7.133 HEAT: -150.8245
 CYCLE:   442 TIME:   0.070 TIME LEFT:  2.00D  GRAD.:     5.150 HEAT: -150.8424
 CYCLE:   443 TIME:   0.078 TIME LEFT:  2.00D  GRAD.:     3.987 HEAT: -150.8530
 CYCLE:   444 TIME:   0.070 TIME LEFT:  2.00D  GRAD.:     3.524 HEAT: -150.8674
 CYCLE:   445 TIME:   0.070 TIME LEFT:  2.00D  GRAD.:     5.881 HEAT: -150.8739
 CYCLE:   446 TIME:   0.070 TIME LEFT:  2.00D  GRAD.:    10.199 HEAT: -150.8759
 CYCLE:   447 TIME:   0.070 TIME LEFT:  2.00D  GRAD.:    10.618 HEAT: -150.8928
 CYCLE:   448 TIME:   0.070 TIME LEFT:  2.00D  GRAD.:     7.644 HEAT: -150.8972
 CYCLE:   449 TIME:   0.070 TIME LEFT:  2.00D  GRAD.:     6.818 HEAT: -150.9155
 CYCLE:   450 TIME:   0.078 TIME LEFT:  2.00D  GRAD.:     4.973 HEAT: -150.9116
 CYCLE:   451 TIME:   0.062 TIME LEFT:  2.00D  GRAD.:     4.744 HEAT: -150.9308
 CYCLE:   452 TIME:   0.078 TIME LEFT:  2.00D  GRAD.:     8.187 HEAT: -150.9220
 CYCLE:   453 TIME:   0.070 TIME LEFT:  2.00D  GRAD.:     4.217 HEAT: -150.9439
 CYCLE:   454 TIME:   0.078 TIME LEFT:  2.00D  GRAD.:    10.827 HEAT: -150.9205
 CYCLE:   455 TIME:   0.078 TIME LEFT:  2.00D  GRAD.:     8.551 HEAT: -150.9382
 CYCLE:   456 TIME:   0.078 TIME LEFT:  2.00D  GRAD.:    32.202 HEAT: -150.7858
 CYCLE:   457 TIME:   0.070 TIME LEFT:  2.00D  GRAD.:    36.318 HEAT: -150.7554
 CYCLE:   458 TIME:   0.070 TIME LEFT:  2.00D  GRAD.:    16.150 HEAT: -150.9165
 CYCLE:   459 TIME:   0.078 TIME LEFT:  2.00D  GRAD.:    17.698 HEAT: -150.8739
 CYCLE:   460 TIME:   0.078 TIME LEFT:  2.00D  GRAD.:     4.413 HEAT: -150.9703
 CYCLE:   461 TIME:   0.070 TIME LEFT:  2.00D  GRAD.:     1.951 HEAT: -150.9853
 CYCLE:   462 TIME:   0.078 TIME LEFT:  2.00D  GRAD.:     5.929 HEAT: -150.9915
 CYCLE:   463 TIME:   0.062 TIME LEFT:  2.00D  GRAD.:     4.693 HEAT: -151.0017
 CYCLE:   464 TIME:   0.070 TIME LEFT:  2.00D  GRAD.:     3.252 HEAT: -151.0245
 CYCLE:   465 TIME:   0.070 TIME LEFT:  2.00D  GRAD.:     4.469 HEAT: -151.0339
 CYCLE:   466 TIME:   0.070 TIME LEFT:  2.00D  GRAD.:     3.756 HEAT: -151.0428
 CYCLE:   467 TIME:   0.070 TIME LEFT:  2.00D  GRAD.:     4.365 HEAT: -151.0463
 CYCLE:   468 TIME:   0.078 TIME LEFT:  2.00D  GRAD.:     2.683 HEAT: -151.0529
 CYCLE:   469 TIME:   0.070 TIME LEFT:  2.00D  GRAD.:     2.285 HEAT: -151.0551
 CYCLE:   470 TIME:   0.070 TIME LEFT:  2.00D  GRAD.:     2.631 HEAT: -151.0604
 CYCLE:   471 TIME:   0.070 TIME LEFT:  2.00D  GRAD.:     4.243 HEAT: -151.0637
 CYCLE:   472 TIME:   0.070 TIME LEFT:  2.00D  GRAD.:     3.114 HEAT: -151.0707
 CYCLE:   473 TIME:   0.070 TIME LEFT:  2.00D  GRAD.:     3.169 HEAT: -151.0784
 CYCLE:   474 TIME:   0.070 TIME LEFT:  2.00D  GRAD.:     2.437 HEAT: -151.0825
 CYCLE:   475 TIME:   0.070 TIME LEFT:  2.00D  GRAD.:     3.665 HEAT: -151.0881
 CYCLE:   476 TIME:   0.070 TIME LEFT:  2.00D  GRAD.:     2.650 HEAT: -151.0945
 CYCLE:   477 TIME:   0.078 TIME LEFT:  2.00D  GRAD.:     2.609 HEAT: -151.1045
 CYCLE:   478 TIME:   0.078 TIME LEFT:  2.00D  GRAD.:     4.968 HEAT: -151.1103
 CYCLE:   479 TIME:   0.070 TIME LEFT:  2.00D  GRAD.:     3.151 HEAT: -151.1176
 CYCLE:   480 TIME:   0.070 TIME LEFT:  2.00D  GRAD.:     3.205 HEAT: -151.1226
 CYCLE:   481 TIME:   0.070 TIME LEFT:  2.00D  GRAD.:     4.284 HEAT: -151.1308
 CYCLE:   482 TIME:   0.062 TIME LEFT:  2.00D  GRAD.:     3.824 HEAT: -151.1394
 CYCLE:   483 TIME:   0.070 TIME LEFT:  2.00D  GRAD.:     3.209 HEAT: -151.1452
 CYCLE:   484 TIME:   0.062 TIME LEFT:  2.00D  GRAD.:     2.940 HEAT: -151.1533
 CYCLE:   485 TIME:   0.078 TIME LEFT:  2.00D  GRAD.:     5.498 HEAT: -151.1616
 CYCLE:   486 TIME:   0.062 TIME LEFT:  2.00D  GRAD.:     4.531 HEAT: -151.1701
 CYCLE:   487 TIME:   0.070 TIME LEFT:  2.00D  GRAD.:     3.980 HEAT: -151.1855
 CYCLE:   488 TIME:   0.070 TIME LEFT:  2.00D  GRAD.:     5.476 HEAT: -151.1927
 CYCLE:   489 TIME:   0.062 TIME LEFT:  2.00D  GRAD.:     4.053 HEAT: -151.2036
 CYCLE:   490 TIME:   0.070 TIME LEFT:  2.00D  GRAD.:     3.002 HEAT: -151.2141
 CYCLE:   491 TIME:   0.070 TIME LEFT:  2.00D  GRAD.:     3.298 HEAT: -151.2230
 CYCLE:   492 TIME:   0.062 TIME LEFT:  2.00D  GRAD.:     4.586 HEAT: -151.2307
 CYCLE:   493 TIME:   0.070 TIME LEFT:  2.00D  GRAD.:     4.522 HEAT: -151.2410
 CYCLE:   494 TIME:   0.078 TIME LEFT:  2.00D  GRAD.:     4.173 HEAT: -151.2503
 CYCLE:   495 TIME:   0.070 TIME LEFT:  2.00D  GRAD.:     7.826 HEAT: -151.2552
 CYCLE:   496 TIME:   0.062 TIME LEFT:  2.00D  GRAD.:     4.348 HEAT: -151.2731
 CYCLE:   497 TIME:   0.070 TIME LEFT:  2.00D  GRAD.:     3.406 HEAT: -151.2854
 CYCLE:   498 TIME:   0.070 TIME LEFT:  2.00D  GRAD.:     3.213 HEAT: -151.2873
 CYCLE:   499 TIME:   0.070 TIME LEFT:  2.00D  GRAD.:     2.565 HEAT: -151.2974
 CYCLE:   500 TIME:   0.078 TIME LEFT:  2.00D  GRAD.:     4.482 HEAT: -151.3028
 CYCLE:   501 TIME:   0.070 TIME LEFT:  2.00D  GRAD.:     9.174 HEAT: -151.2981
 CYCLE:   502 TIME:   0.070 TIME LEFT:  2.00D  GRAD.:     2.433 HEAT: -151.3132
 CYCLE:   503 TIME:   0.078 TIME LEFT:  2.00D  GRAD.:     3.097 HEAT: -151.3173
 CYCLE:   504 TIME:   0.062 TIME LEFT:  2.00D  GRAD.:     1.976 HEAT: -151.3242
 CYCLE:   505 TIME:   0.078 TIME LEFT:  2.00D  GRAD.:     2.912 HEAT: -151.3362
 CYCLE:   506 TIME:   0.070 TIME LEFT:  2.00D  GRAD.:     9.622 HEAT: -151.3308
 CYCLE:   507 TIME:   0.070 TIME LEFT:  2.00D  GRAD.:     2.775 HEAT: -151.3441
 CYCLE:   508 TIME:   0.070 TIME LEFT:  2.00D  GRAD.:     1.579 HEAT: -151.3472
 CYCLE:   509 TIME:   0.070 TIME LEFT:  2.00D  GRAD.:     1.744 HEAT: -151.3515
 CYCLE:   510 TIME:   0.078 TIME LEFT:  2.00D  GRAD.:     3.197 HEAT: -151.3579
 CYCLE:   511 TIME:   0.062 TIME LEFT:  2.00D  GRAD.:     5.382 HEAT: -151.3612
 CYCLE:   512 TIME:   0.070 TIME LEFT:  2.00D  GRAD.:     2.802 HEAT: -151.3673
 CYCLE:   513 TIME:   0.062 TIME LEFT:  2.00D  GRAD.:     2.171 HEAT: -151.3726
 CYCLE:   514 TIME:   0.078 TIME LEFT:  2.00D  GRAD.:     2.281 HEAT: -151.3760
 CYCLE:   515 TIME:   0.070 TIME LEFT:  2.00D  GRAD.:     4.514 HEAT: -151.3806
 CYCLE:   516 TIME:   0.070 TIME LEFT:  2.00D  GRAD.:     2.933 HEAT: -151.3846
 CYCLE:   517 TIME:   0.062 TIME LEFT:  2.00D  GRAD.:     2.367 HEAT: -151.3906
 CYCLE:   518 TIME:   0.094 TIME LEFT:  2.00D  GRAD.:     2.507 HEAT: -151.3941
 CYCLE:   519 TIME:   0.078 TIME LEFT:  2.00D  GRAD.:     6.912 HEAT: -151.4035
 CYCLE:   520 TIME:   0.070 TIME LEFT:  2.00D  GRAD.:     5.260 HEAT: -151.4145
 CYCLE:   521 TIME:   0.062 TIME LEFT:  2.00D  GRAD.:     3.695 HEAT: -151.4216
 CYCLE:   522 TIME:   0.078 TIME LEFT:  2.00D  GRAD.:     2.924 HEAT: -151.4249
 CYCLE:   523 TIME:   0.062 TIME LEFT:  2.00D  GRAD.:     3.392 HEAT: -151.4325
 CYCLE:   524 TIME:   0.070 TIME LEFT:  2.00D  GRAD.:     2.544 HEAT: -151.4393
 CYCLE:   525 TIME:   0.070 TIME LEFT:  2.00D  GRAD.:     2.290 HEAT: -151.4424
 CYCLE:   526 TIME:   0.070 TIME LEFT:  2.00D  GRAD.:     1.916 HEAT: -151.4469
 CYCLE:   527 TIME:   0.086 TIME LEFT:  2.00D  GRAD.:     2.753 HEAT: -151.4473
 CYCLE:   528 TIME:   0.078 TIME LEFT:  2.00D  GRAD.:     5.702 HEAT: -151.4520
 CYCLE:   529 TIME:   0.062 TIME LEFT:  2.00D  GRAD.:     4.394 HEAT: -151.4569
 CYCLE:   530 TIME:   0.070 TIME LEFT:  2.00D  GRAD.:     1.623 HEAT: -151.4608
 CYCLE:   531 TIME:   0.094 TIME LEFT:  2.00D  GRAD.:     3.006 HEAT: -151.4622
 CYCLE:   532 TIME:   0.062 TIME LEFT:  2.00D  GRAD.:     2.083 HEAT: -151.4656
 CYCLE:   533 TIME:   0.078 TIME LEFT:  2.00D  GRAD.:     2.048 HEAT: -151.4723
 CYCLE:   534 TIME:   0.070 TIME LEFT:  2.00D  GRAD.:     4.601 HEAT: -151.4756
 CYCLE:   535 TIME:   0.062 TIME LEFT:  2.00D  GRAD.:     3.180 HEAT: -151.4816
 CYCLE:   536 TIME:   0.078 TIME LEFT:  2.00D  GRAD.:     2.869 HEAT: -151.4870
 CYCLE:   537 TIME:   0.078 TIME LEFT:  2.00D  GRAD.:     8.073 HEAT: -151.4808
 CYCLE:   538 TIME:   0.070 TIME LEFT:  2.00D  GRAD.:     3.070 HEAT: -151.4962
 CYCLE:   539 TIME:   0.078 TIME LEFT:  2.00D  GRAD.:     8.395 HEAT: -151.4812
 CYCLE:   540 TIME:   0.070 TIME LEFT:  2.00D  GRAD.:     5.254 HEAT: -151.5006
 CYCLE:   541 TIME:   0.070 TIME LEFT:  2.00D  GRAD.:     7.141 HEAT: -151.4892
 CYCLE:   542 TIME:   0.070 TIME LEFT:  2.00D  GRAD.:     5.378 HEAT: -151.5123
 CYCLE:   543 TIME:   0.070 TIME LEFT:  2.00D  GRAD.:     7.046 HEAT: -151.5028
 CYCLE:   544 TIME:   0.078 TIME LEFT:  2.00D  GRAD.:     2.407 HEAT: -151.5182
 CYCLE:   545 TIME:   0.070 TIME LEFT:  2.00D  GRAD.:     6.534 HEAT: -151.4980
 CYCLE:   546 TIME:   0.086 TIME LEFT:  2.00D  GRAD.:     3.357 HEAT: -151.5260
 CYCLE:   547 TIME:   0.070 TIME LEFT:  2.00D  GRAD.:     5.068 HEAT: -151.5302
 CYCLE:   548 TIME:   0.062 TIME LEFT:  2.00D  GRAD.:     2.830 HEAT: -151.5368
 CYCLE:   549 TIME:   0.078 TIME LEFT:  2.00D  GRAD.:     7.282 HEAT: -151.5083
 CYCLE:   550 TIME:   0.086 TIME LEFT:  2.00D  GRAD.:     3.767 HEAT: -151.5513
 CYCLE:   551 TIME:   0.062 TIME LEFT:  2.00D  GRAD.:    16.095 HEAT: -151.5223
 CYCLE:   552 TIME:   0.070 TIME LEFT:  2.00D  GRAD.:     2.411 HEAT: -151.5618
 CYCLE:   553 TIME:   0.062 TIME LEFT:  2.00D  GRAD.:     1.737 HEAT: -151.5675
 CYCLE:   554 TIME:   0.078 TIME LEFT:  2.00D  GRAD.:     5.236 HEAT: -151.5862
 CYCLE:   555 TIME:   0.070 TIME LEFT:  2.00D  GRAD.:     4.572 HEAT: -151.5965
 CYCLE:   556 TIME:   0.062 TIME LEFT:  2.00D  GRAD.:     4.162 HEAT: -151.6059
 CYCLE:   557 TIME:   0.070 TIME LEFT:  2.00D  GRAD.:     2.805 HEAT: -151.6153
 CYCLE:   558 TIME:   0.078 TIME LEFT:  2.00D  GRAD.:    15.264 HEAT: -151.6000
 CYCLE:   559 TIME:   0.078 TIME LEFT:  2.00D  GRAD.:     8.290 HEAT: -151.6048
 CYCLE:   560 TIME:   0.070 TIME LEFT:  2.00D  GRAD.:    15.890 HEAT: -151.6058
 CYCLE:   561 TIME:   0.078 TIME LEFT:  2.00D  GRAD.:     3.581 HEAT: -151.6364
 CYCLE:   562 TIME:   0.062 TIME LEFT:  2.00D  GRAD.:     2.177 HEAT: -151.6393
 CYCLE:   563 TIME:   0.078 TIME LEFT:  2.00D  GRAD.:     9.813 HEAT: -151.6445
 CYCLE:   564 TIME:   0.070 TIME LEFT:  2.00D  GRAD.:     4.722 HEAT: -151.6563
 CYCLE:   565 TIME:   0.062 TIME LEFT:  2.00D  GRAD.:     3.195 HEAT: -151.6673
 CYCLE:   566 TIME:   0.078 TIME LEFT:  2.00D  GRAD.:    18.474 HEAT: -151.6404
 CYCLE:   567 TIME:   0.078 TIME LEFT:  2.00D  GRAD.:     3.761 HEAT: -151.6812
 CYCLE:   568 TIME:   0.078 TIME LEFT:  2.00D  GRAD.:     4.611 HEAT: -151.6941
 CYCLE:   569 TIME:   0.070 TIME LEFT:  2.00D  GRAD.:     7.105 HEAT: -151.7033
 CYCLE:   570 TIME:   0.078 TIME LEFT:  2.00D  GRAD.:    10.887 HEAT: -151.6846
 CYCLE:   571 TIME:   0.070 TIME LEFT:  2.00D  GRAD.:     5.247 HEAT: -151.7227
 CYCLE:   572 TIME:   0.070 TIME LEFT:  2.00D  GRAD.:     5.909 HEAT: -151.7233
 CYCLE:   573 TIME:   0.070 TIME LEFT:  2.00D  GRAD.:     1.803 HEAT: -151.7320
 CYCLE:   574 TIME:   0.078 TIME LEFT:  2.00D  GRAD.:     4.457 HEAT: -151.7388
 CYCLE:   575 TIME:   0.062 TIME LEFT:  2.00D  GRAD.:     3.994 HEAT: -151.7471
 CYCLE:   576 TIME:   0.078 TIME LEFT:  2.00D  GRAD.:     4.255 HEAT: -151.7541
 CYCLE:   577 TIME:   0.070 TIME LEFT:  2.00D  GRAD.:    14.884 HEAT: -151.7353
 CYCLE:   578 TIME:   0.078 TIME LEFT:  2.00D  GRAD.:     4.908 HEAT: -151.7747
 CYCLE:   579 TIME:   0.062 TIME LEFT:  2.00D  GRAD.:     2.512 HEAT: -151.7809
 CYCLE:   580 TIME:   0.070 TIME LEFT:  2.00D  GRAD.:     2.542 HEAT: -151.7883
 CYCLE:   581 TIME:   0.078 TIME LEFT:  2.00D  GRAD.:     2.532 HEAT: -151.7966
 CYCLE:   582 TIME:   0.078 TIME LEFT:  2.00D  GRAD.:    16.119 HEAT: -151.7887
 CYCLE:   583 TIME:   0.070 TIME LEFT:  2.00D  GRAD.:     4.332 HEAT: -151.8261
 CYCLE:   584 TIME:   0.070 TIME LEFT:  2.00D  GRAD.:     3.084 HEAT: -151.8368
 CYCLE:   585 TIME:   0.078 TIME LEFT:  2.00D  GRAD.:     5.280 HEAT: -151.8411
 CYCLE:   586 TIME:   0.070 TIME LEFT:  2.00D  GRAD.:     6.171 HEAT: -151.8647
 CYCLE:   587 TIME:   0.070 TIME LEFT:  2.00D  GRAD.:     5.308 HEAT: -151.8807
 CYCLE:   588 TIME:   0.062 TIME LEFT:  2.00D  GRAD.:     2.962 HEAT: -151.8921
 CYCLE:   589 TIME:   0.078 TIME LEFT:  2.00D  GRAD.:     7.489 HEAT: -151.8954
 CYCLE:   590 TIME:   0.070 TIME LEFT:  2.00D  GRAD.:     8.920 HEAT: -151.8965
 CYCLE:   591 TIME:   0.070 TIME LEFT:  2.00D  GRAD.:     2.468 HEAT: -151.9125
 CYCLE:   592 TIME:   0.078 TIME LEFT:  2.00D  GRAD.:     6.826 HEAT: -151.9125
 CYCLE:   593 TIME:   0.070 TIME LEFT:  2.00D  GRAD.:     2.630 HEAT: -151.9290
 CYCLE:   594 TIME:   0.062 TIME LEFT:  2.00D  GRAD.:     2.569 HEAT: -151.9383
 CYCLE:   595 TIME:   0.078 TIME LEFT:  2.00D  GRAD.:     5.457 HEAT: -151.9561
 CYCLE:   596 TIME:   0.070 TIME LEFT:  2.00D  GRAD.:     7.905 HEAT: -151.9692
 CYCLE:   597 TIME:   0.070 TIME LEFT:  2.00D  GRAD.:     5.762 HEAT: -151.9739
 CYCLE:   598 TIME:   0.070 TIME LEFT:  2.00D  GRAD.:     3.344 HEAT: -151.9898
 CYCLE:   599 TIME:   0.070 TIME LEFT:  2.00D  GRAD.:     5.291 HEAT: -151.9936
 CYCLE:   600 TIME:   0.070 TIME LEFT:  2.00D  GRAD.:     3.216 HEAT: -152.0070
 CYCLE:   601 TIME:   0.078 TIME LEFT:  2.00D  GRAD.:     8.529 HEAT: -151.9886
 CYCLE:   602 TIME:   0.078 TIME LEFT:  2.00D  GRAD.:    11.008 HEAT: -151.9995
 CYCLE:   603 TIME:   0.062 TIME LEFT:  2.00D  GRAD.:     3.536 HEAT: -152.0246
 CYCLE:   604 TIME:   0.070 TIME LEFT:  2.00D  GRAD.:     3.383 HEAT: -152.0295
 CYCLE:   605 TIME:   0.070 TIME LEFT:  2.00D  GRAD.:     2.752 HEAT: -152.0381
 CYCLE:   606 TIME:   0.070 TIME LEFT:  2.00D  GRAD.:     4.424 HEAT: -152.0551
 CYCLE:   607 TIME:   0.070 TIME LEFT:  2.00D  GRAD.:     5.417 HEAT: -152.0610
 CYCLE:   608 TIME:   0.070 TIME LEFT:  2.00D  GRAD.:     3.933 HEAT: -152.0667
 CYCLE:   609 TIME:   0.070 TIME LEFT:  2.00D  GRAD.:     3.815 HEAT: -152.0798
 CYCLE:   610 TIME:   0.070 TIME LEFT:  2.00D  GRAD.:     4.877 HEAT: -152.0897
 CYCLE:   611 TIME:   0.062 TIME LEFT:  2.00D  GRAD.:     5.469 HEAT: -152.1019
 CYCLE:   612 TIME:   0.070 TIME LEFT:  2.00D  GRAD.:     3.590 HEAT: -152.1146
 CYCLE:   613 TIME:   0.078 TIME LEFT:  2.00D  GRAD.:     4.446 HEAT: -152.1193
 CYCLE:   614 TIME:   0.062 TIME LEFT:  2.00D  GRAD.:     5.803 HEAT: -152.1354
 CYCLE:   615 TIME:   0.070 TIME LEFT:  2.00D  GRAD.:     5.090 HEAT: -152.1480
 CYCLE:   616 TIME:   0.062 TIME LEFT:  2.00D  GRAD.:     2.814 HEAT: -152.1558
 CYCLE:   617 TIME:   0.078 TIME LEFT:  2.00D  GRAD.:     4.366 HEAT: -152.1640
 CYCLE:   618 TIME:   0.070 TIME LEFT:  2.00D  GRAD.:     5.412 HEAT: -152.1726
 CYCLE:   619 TIME:   0.070 TIME LEFT:  2.00D  GRAD.:     9.220 HEAT: -152.1803
 CYCLE:   620 TIME:   0.070 TIME LEFT:  2.00D  GRAD.:     3.601 HEAT: -152.1974
 CYCLE:   621 TIME:   0.070 TIME LEFT:  2.00D  GRAD.:     2.793 HEAT: -152.2056
 CYCLE:   622 TIME:   0.062 TIME LEFT:  2.00D  GRAD.:     2.918 HEAT: -152.2116
 CYCLE:   623 TIME:   0.078 TIME LEFT:  2.00D  GRAD.:     4.468 HEAT: -152.2248
 CYCLE:   624 TIME:   0.070 TIME LEFT:  2.00D  GRAD.:     5.739 HEAT: -152.2274
 CYCLE:   625 TIME:   0.062 TIME LEFT:  2.00D  GRAD.:     2.684 HEAT: -152.2367
 CYCLE:   626 TIME:   0.078 TIME LEFT:  2.00D  GRAD.:     2.488 HEAT: -152.2409
 CYCLE:   627 TIME:   0.070 TIME LEFT:  2.00D  GRAD.:     3.184 HEAT: -152.2489
 CYCLE:   628 TIME:   0.078 TIME LEFT:  2.00D  GRAD.:     4.890 HEAT: -152.2574
 CYCLE:   629 TIME:   0.070 TIME LEFT:  2.00D  GRAD.:     4.221 HEAT: -152.2696
 CYCLE:   630 TIME:   0.062 TIME LEFT:  2.00D  GRAD.:     3.039 HEAT: -152.2763
 CYCLE:   631 TIME:   0.070 TIME LEFT:  2.00D  GRAD.:     2.584 HEAT: -152.2811
 CYCLE:   632 TIME:   0.070 TIME LEFT:  2.00D  GRAD.:     3.918 HEAT: -152.2900
 CYCLE:   633 TIME:   0.070 TIME LEFT:  2.00D  GRAD.:     3.953 HEAT: -152.2951
 CYCLE:   634 TIME:   0.070 TIME LEFT:  2.00D  GRAD.:     2.258 HEAT: -152.3012
 CYCLE:   635 TIME:   0.070 TIME LEFT:  2.00D  GRAD.:     2.438 HEAT: -152.3050
 CYCLE:   636 TIME:   0.062 TIME LEFT:  2.00D  GRAD.:     2.103 HEAT: -152.3082
 CYCLE:   637 TIME:   0.070 TIME LEFT:  2.00D  GRAD.:     2.351 HEAT: -152.3109
 CYCLE:   638 TIME:   0.070 TIME LEFT:  2.00D  GRAD.:     2.327 HEAT: -152.3153
 CYCLE:   639 TIME:   0.070 TIME LEFT:  2.00D  GRAD.:     3.073 HEAT: -152.3207
 CYCLE:   640 TIME:   0.070 TIME LEFT:  2.00D  GRAD.:     2.244 HEAT: -152.3240
 CYCLE:   641 TIME:   0.062 TIME LEFT:  2.00D  GRAD.:     1.930 HEAT: -152.3265
 CYCLE:   642 TIME:   0.070 TIME LEFT:  2.00D  GRAD.:     2.354 HEAT: -152.3310
 CYCLE:   643 TIME:   0.078 TIME LEFT:  2.00D  GRAD.:     3.534 HEAT: -152.3346
 CYCLE:   644 TIME:   0.062 TIME LEFT:  2.00D  GRAD.:     2.489 HEAT: -152.3394
 CYCLE:   645 TIME:   0.078 TIME LEFT:  2.00D  GRAD.:     2.176 HEAT: -152.3456
 CYCLE:   646 TIME:   0.070 TIME LEFT:  2.00D  GRAD.:     4.159 HEAT: -152.3491
 CYCLE:   647 TIME:   0.070 TIME LEFT:  2.00D  GRAD.:     2.538 HEAT: -152.3542
 CYCLE:   648 TIME:   0.070 TIME LEFT:  2.00D  GRAD.:     2.387 HEAT: -152.3599
 CYCLE:   649 TIME:   0.062 TIME LEFT:  2.00D  GRAD.:     2.890 HEAT: -152.3656
 CYCLE:   650 TIME:   0.070 TIME LEFT:  2.00D  GRAD.:     5.743 HEAT: -152.3664
 CYCLE:   651 TIME:   0.062 TIME LEFT:  2.00D  GRAD.:     2.221 HEAT: -152.3715
 CYCLE:   652 TIME:   0.070 TIME LEFT:  2.00D  GRAD.:     1.565 HEAT: -152.3740
 CYCLE:   653 TIME:   0.070 TIME LEFT:  2.00D  GRAD.:     2.352 HEAT: -152.3765
 CYCLE:   654 TIME:   0.070 TIME LEFT:  2.00D  GRAD.:     1.827 HEAT: -152.3798
 CYCLE:   655 TIME:   0.078 TIME LEFT:  2.00D  GRAD.:     1.981 HEAT: -152.3822
 CYCLE:   656 TIME:   0.070 TIME LEFT:  2.00D  GRAD.:    12.289 HEAT: -152.3674
 CYCLE:   657 TIME:   0.070 TIME LEFT:  2.00D  GRAD.:     1.931 HEAT: -152.3896
 CYCLE:   658 TIME:   0.070 TIME LEFT:  2.00D  GRAD.:     1.907 HEAT: -152.3910
 CYCLE:   659 TIME:   0.070 TIME LEFT:  2.00D  GRAD.:     2.341 HEAT: -152.3942
 CYCLE:   660 TIME:   0.070 TIME LEFT:  2.00D  GRAD.:     3.011 HEAT: -152.3997
 CYCLE:   661 TIME:   0.070 TIME LEFT:  2.00D  GRAD.:     2.613 HEAT: -152.4050
 CYCLE:   662 TIME:   0.070 TIME LEFT:  2.00D  GRAD.:     1.932 HEAT: -152.4094
 CYCLE:   663 TIME:   0.070 TIME LEFT:  2.00D  GRAD.:     2.468 HEAT: -152.4133
 CYCLE:   664 TIME:   0.062 TIME LEFT:  2.00D  GRAD.:     3.406 HEAT: -152.4179
 CYCLE:   665 TIME:   0.070 TIME LEFT:  2.00D  GRAD.:     2.563 HEAT: -152.4230
 CYCLE:   666 TIME:   0.070 TIME LEFT:  2.00D  GRAD.:     2.100 HEAT: -152.4272
 CYCLE:   667 TIME:   0.078 TIME LEFT:  2.00D  GRAD.:     2.771 HEAT: -152.4298
 CYCLE:   668 TIME:   0.070 TIME LEFT:  2.00D  GRAD.:     3.666 HEAT: -152.4342
 CYCLE:   669 TIME:   0.070 TIME LEFT:  2.00D  GRAD.:     2.795 HEAT: -152.4396
 CYCLE:   670 TIME:   0.062 TIME LEFT:  2.00D  GRAD.:     2.586 HEAT: -152.4438
 CYCLE:   671 TIME:   0.070 TIME LEFT:  2.00D  GRAD.:     2.355 HEAT: -152.4467
 CYCLE:   672 TIME:   0.078 TIME LEFT:  2.00D  GRAD.:     2.554 HEAT: -152.4484
 CYCLE:   673 TIME:   0.070 TIME LEFT:  2.00D  GRAD.:     7.686 HEAT: -152.4461
 CYCLE:   674 TIME:   0.070 TIME LEFT:  2.00D  GRAD.:     3.294 HEAT: -152.4551
 CYCLE:   675 TIME:   0.070 TIME LEFT:  2.00D  GRAD.:     2.316 HEAT: -152.4583
 CYCLE:   676 TIME:   0.070 TIME LEFT:  2.00D  GRAD.:     2.706 HEAT: -152.4612
 CYCLE:   677 TIME:   0.070 TIME LEFT:  2.00D  GRAD.:     2.994 HEAT: -152.4645
 CYCLE:   678 TIME:   0.078 TIME LEFT:  2.00D  GRAD.:     2.753 HEAT: -152.4640
 CYCLE:   679 TIME:   0.070 TIME LEFT:  2.00D  GRAD.:     7.675 HEAT: -152.4624
 CYCLE:   680 TIME:   0.062 TIME LEFT:  2.00D  GRAD.:     2.632 HEAT: -152.4716
 CYCLE:   681 TIME:   0.078 TIME LEFT:  2.00D  GRAD.:     1.461 HEAT: -152.4691
 CYCLE:   682 TIME:   0.078 TIME LEFT:  2.00D  GRAD.:     1.958 HEAT: -152.4755
 CYCLE:   683 TIME:   0.078 TIME LEFT:  2.00D  GRAD.:     5.742 HEAT: -152.4738
 CYCLE:   684 TIME:   0.070 TIME LEFT:  2.00D  GRAD.:     1.068 HEAT: -152.4798
 CYCLE:   685 TIME:   0.078 TIME LEFT:  2.00D  GRAD.:     1.049 HEAT: -152.4799
 CYCLE:   686 TIME:   0.070 TIME LEFT:  2.00D  GRAD.:     1.565 HEAT: -152.4832
 CYCLE:   687 TIME:   0.078 TIME LEFT:  2.00D  GRAD.:     2.494 HEAT: -152.4874
 CYCLE:   688 TIME:   0.070 TIME LEFT:  2.00D  GRAD.:     8.409 HEAT: -152.4799
 CYCLE:   689 TIME:   0.062 TIME LEFT:  2.00D  GRAD.:     1.330 HEAT: -152.4903
 CYCLE:   690 TIME:   0.078 TIME LEFT:  2.00D  GRAD.:     0.861 HEAT: -152.4909

 -------------------------------------------------------------------------------
 PM7 XYZ

 Lipophilicity_388 - geometry optimisation


     HERBERTS TEST WAS SATISFIED IN BFGS                      
     SCF FIELD WAS ACHIEVED                                   


                              PM7 CALCULATION
                                                       MOPAC v23.0.3 Linux
                                                       Fri Jul 25 19:39:40 2025




          FINAL HEAT OF FORMATION =       -152.49086 KCAL/MOL =    -638.02176 KJ/MOL


          COSMO AREA              =        482.22 SQUARE ANGSTROMS
          COSMO VOLUME            =        626.40 CUBIC ANGSTROMS

          GRADIENT NORM           =          0.86129          =       0.10222 PER ATOM
          IONIZATION POTENTIAL    =          8.590745 EV
          HOMO LUMO ENERGIES (EV) =         -8.591 -0.533
          NO. OF FILLED LEVELS    =        100
          MOLECULAR WEIGHT        =        519.5962         POINT GROUP:  C1  

          MOLECULAR DIMENSIONS (Angstroms)

            Atom       Atom       Distance
            H    43    O    28    15.81622
            H    69    H    61    10.51831
            H    58    H    45     7.47659


          SCF CALCULATIONS        =        691

          WALL-CLOCK TIME         =     49.719 SECONDS
          COMPUTATION TIME        =         16 MINUTES AND 31.430 SECONDS




   ATOM   CHEMICAL          X               Y               Z
  NUMBER   SYMBOL      (ANGSTROMS)     (ANGSTROMS)     (ANGSTROMS)

     1       O         -1.59396098  *  -2.41893842  *  -1.12605614  *
     2       C         -2.45932868  *  -1.72006379  *  -0.64143924  *
     3       C         -3.87541675  *  -1.73859968  *  -1.22226776  *
     4       N         -4.76793092  *  -0.82923629  *  -0.47138366  *
     5       C         -5.70998404  *  -0.10514879  *  -1.34553881  *
     6       C         -6.84623412  *  -1.00685691  *  -1.87716666  *
     7       O         -6.73706005  *  -2.32079666  *  -1.36756589  *
     8       C         -6.67844410  *  -2.38752559  *   0.04358826  *
     9       C         -5.50866887  *  -1.54088186  *   0.59183608  *
    10       N         -2.22810689  *  -0.88441756  *   0.43692270  *
    11       C         -0.96266993  *  -0.64146237  *   0.99888125  *
    12       C          0.11084990  *  -1.53473701  *   0.92375641  *
    13       C          1.32327427  *  -1.21144899  *   1.52633265  *
    14       C          1.48872983  *  -0.00314591  *   2.20743495  *
    15       C          0.42171032  *   0.89494199  *   2.30551417  *
    16       C         -0.78671643  *   0.56931310  *   1.70894887  *
    17       O         -1.88900214  *   1.37229757  *   1.88631066  *
    18       C         -1.88231769  *   2.55907427  *   1.09242839  *
    19       C         -2.30742997  *   2.24527599  *  -0.31975419  *
    20       C         -1.25472686  *   1.95473077  *  -1.36989690  *
    21       C         -2.02454299  *   3.24987792  *  -1.41565780  *
    22       C          2.77990544  *   0.34176445  *   2.80081837  *
    23       C          2.91600542  *   0.68218963  *   4.14491238  *
    24       C          4.16383470  *   1.02442251  *   4.67472399  *
    25       C          5.29466019  *   1.04392088  *   3.86512079  *
    26       C          5.18661197  *   0.71348783  *   2.51243935  *
    27       C          6.35269602  *   0.74529967  *   1.59836751  *
    28       O          7.46412786  *   1.00825123  *   2.00443677  *
    29       C          6.04299695  *   0.44816677  *   0.21681267  *
    30       C          4.78721035  *   0.10192693  *  -0.17220026  *
    31       O          3.73552202  *  -0.01901879  *   0.70742349  *
    32       C          3.94018834  *   0.35781970  *   2.01020808  *
    33       N          4.30826541  *  -0.10024426  *  -1.45240137  *
    34       C          2.99109418  *  -0.75582901  *  -1.60418427  *
    35       C          2.48152343  *  -0.51430582  *  -3.03590881  *
    36       O          3.43776525  *  -0.95030346  *  -3.98384496  *
    37       C          4.66003878  *  -0.25035099  *  -3.86592461  *
    38       C          5.28636362  *  -0.50679803  *  -2.48200130  *
    39       H         -4.23638325  *  -2.79431756  *  -1.24703171  *
    40       H         -3.79790665  *  -1.43896057  *  -2.29291844  *
    41       H         -5.15227467  *   0.36590108  *  -2.18092612  *
    42       H         -6.12794696  *   0.73523546  *  -0.74572255  *
    43       H         -7.84280447  *  -0.60179632  *  -1.63677636  *
    44       H         -6.77707754  *  -1.17709107  *  -2.96644435  *
    45       H         -6.53468718  *  -3.46969613  *   0.21587284  *
    46       H         -7.64793270  *  -2.07996184  *   0.46798052  *
    47       H         -5.88336754  *  -0.76978451  *   1.30161301  *
    48       H         -4.80017889  *  -2.17190375  *   1.17012982  *
    49       H         -2.97804252  *  -0.24555354  *   0.72736693  *
    50       H         -0.00132427  *  -2.48459213  *   0.39391683  *
    51       H          2.15473473  *  -1.91542257  *   1.47195941  *
    52       H          0.53395494  *   1.83724529  *   2.83686942  *
    53       H         -0.89743475  *   3.05471714  *   1.15003212  *
    54       H         -2.63460357  *   3.17800970  *   1.62170216  *
    55       H         -3.24974185  *   1.68320669  *  -0.35894296  *
    56       H         -0.20334378  *   1.95880918  *  -1.09205694  *
    57       H         -1.43638882  *   1.18535892  *  -2.11505422  *
    58       H         -1.52385112  *   4.18425988  *  -1.18037217  *
    59       H         -2.76374485  *   3.41297526  *  -2.19439387  *
    60       H          2.03554582  *   0.67690979  *   4.78952985  *
    61       H          4.24778386  *   1.27787448  *   5.72951438  *
    62       H          6.27570222  *   1.31435303  *   4.26738884  *
    63       H          6.87065750  *   0.53026833  *  -0.47818182  *
    64       H          2.26155857  *  -0.32893774  *  -0.87367794  *
    65       H          3.06174871  *  -1.84712962  *  -1.39852853  *
    66       H          1.60046049  *  -1.14456679  *  -3.26319279  *
    67       H          2.23595728  *   0.54737684  *  -3.21179934  *
    68       H          4.49834272  *   0.82694626  *  -4.04837643  *
    69       H          5.27489063  *  -0.67852531  *  -4.67798592  *
    70       H          6.22015029  *   0.08963297  *  -2.37547233  *
    71       H          5.55820398  *  -1.58082027  *  -2.37463073  *

                             CARTESIAN COORDINATES

   1    O       -1.593960984    -2.418938416    -1.126056143
   2    C       -2.459328675    -1.720063788    -0.641439236
   3    C       -3.875416748    -1.738599684    -1.222267759
   4    N       -4.767930918    -0.829236285    -0.471383658
   5    C       -5.709984040    -0.105148794    -1.345538809
   6    C       -6.846234125    -1.006856913    -1.877166662
   7    O       -6.737060047    -2.320796659    -1.367565894
   8    C       -6.678444104    -2.387525592     0.043588256
   9    C       -5.508668870    -1.540881862     0.591836076
  10    N       -2.228106887    -0.884417560     0.436922700
  11    C       -0.962669927    -0.641462371     0.998881252
  12    C        0.110849900    -1.534737012     0.923756412
  13    C        1.323274270    -1.211448992     1.526332646
  14    C        1.488729830    -0.003145913     2.207434952
  15    C        0.421710322     0.894941995     2.305514174
  16    C       -0.786716428     0.569313095     1.708948866
  17    O       -1.889002136     1.372297570     1.886310665
  18    C       -1.882317693     2.559074267     1.092428387
  19    C       -2.307429965     2.245275992    -0.319754194
  20    C       -1.254726864     1.954730774    -1.369896898
  21    C       -2.024542990     3.249877923    -1.415657801
  22    C        2.779905435     0.341764453     2.800818368
  23    C        2.916005424     0.682189628     4.144912377
  24    C        4.163834695     1.024422509     4.674723985
  25    C        5.294660187     1.043920881     3.865120790
  26    C        5.186611972     0.713487832     2.512439353
  27    C        6.352696021     0.745299669     1.598367513
  28    O        7.464127858     1.008251227     2.004436774
  29    C        6.042996953     0.448166767     0.216812666
  30    C        4.787210348     0.101926926    -0.172200259
  31    O        3.735522016    -0.019018788     0.707423486
  32    C        3.940188344     0.357819705     2.010208077
  33    N        4.308265414    -0.100244258    -1.452401374
  34    C        2.991094185    -0.755829014    -1.604184268
  35    C        2.481523428    -0.514305817    -3.035908815
  36    O        3.437765255    -0.950303462    -3.983844959
  37    C        4.660038776    -0.250350995    -3.865924608
  38    C        5.286363619    -0.506798030    -2.482001299
  39    H       -4.236383246    -2.794317557    -1.247031711
  40    H       -3.797906646    -1.438960574    -2.292918444
  41    H       -5.152274671     0.365901077    -2.180926120
  42    H       -6.127946958     0.735235460    -0.745722553
  43    H       -7.842804469    -0.601796322    -1.636776358
  44    H       -6.777077538    -1.177091067    -2.966444351
  45    H       -6.534687178    -3.469696132     0.215872842
  46    H       -7.647932701    -2.079961840     0.467980523
  47    H       -5.883367542    -0.769784508     1.301613013
  48    H       -4.800178887    -2.171903750     1.170129822
  49    H       -2.978042517    -0.245553538     0.727366935
  50    H       -0.001324265    -2.484592128     0.393916833
  51    H        2.154734734    -1.915422571     1.471959413
  52    H        0.533954943     1.837245285     2.836869419
  53    H       -0.897434752     3.054717136     1.150032120
  54    H       -2.634603573     3.178009698     1.621702162
  55    H       -3.249741852     1.683206692    -0.358942960
  56    H       -0.203343776     1.958809183    -1.092056943
  57    H       -1.436388816     1.185358922    -2.115054222
  58    H       -1.523851120     4.184259885    -1.180372175
  59    H       -2.763744849     3.412975255    -2.194393870
  60    H        2.035545818     0.676909790     4.789529851
  61    H        4.247783865     1.277874485     5.729514383
  62    H        6.275702220     1.314353026     4.267388841
  63    H        6.870657505     0.530268329    -0.478181823
  64    H        2.261558566    -0.328937736    -0.873677935
  65    H        3.061748709    -1.847129619    -1.398528535
  66    H        1.600460494    -1.144566791    -3.263192790
  67    H        2.235957284     0.547376843    -3.211799337
  68    H        4.498342725     0.826946260    -4.048376432
  69    H        5.274890626    -0.678525314    -4.677985920
  70    H        6.220150292     0.089632966    -2.375472328
  71    H        5.558203980    -1.580820272    -2.374630731


           Empirical Formula: C29 H33 N3 O6  =    71 atoms



      MOLECULAR POINT GROUP   :   C1  


                  EIGENVALUES  
 -37.17828 -36.89634 -35.73424 -31.95989 -31.14842 -30.91310 -30.60331 -30.35686
 -30.13733 -30.07622 -29.94038 -29.73870 -27.77163 -27.31993 -27.07868 -26.68086
 -26.32273 -26.15724 -25.78060 -25.01382 -25.01187 -24.55044 -24.09823 -23.13504
 -22.86511 -22.31737 -22.01384 -21.81363 -21.30710 -21.17073 -20.51802 -20.28554
 -19.94749 -19.93683 -19.55563 -18.68740 -18.48224 -18.35351 -17.99555 -17.82004
 -17.67591 -17.37134 -17.01847 -16.61853 -16.56367 -16.43347 -16.32898 -16.14393
 -16.09159 -15.95322 -15.89462 -15.84982 -15.61486 -15.50410 -15.37837 -15.27963
 -15.09358 -15.01752 -14.88493 -14.70845 -14.63833 -14.61244 -14.35910 -14.14889
 -13.96577 -13.75159 -13.66077 -13.65242 -13.50356 -13.43214 -13.32404 -13.28317
 -13.20340 -13.05372 -12.88560 -12.81878 -12.72318 -12.67960 -12.61724 -12.47495
 -12.34330 -12.24097 -12.10112 -11.97877 -11.79926 -11.75561 -11.41148 -11.33781
 -11.26245 -10.86394 -10.81736 -10.48155 -10.33522 -10.03812  -9.77911  -9.72983
  -9.51426  -9.42546  -8.91118  -8.59075  -0.53320  -0.20730   0.01292   0.08698
   0.44292   0.71995   1.27009   1.57918   1.61811   1.65304   1.84636   1.96521
   2.24421   2.24545   2.32515   2.55174   2.70459   3.22712   3.29622   3.36912
   3.37468   3.48270   3.53919   3.65746   3.69278   3.70800   3.78036   3.87221
   3.96672   4.05314   4.09589   4.11396   4.15418   4.32821   4.37644   4.39272
   4.46745   4.56464   4.59663   4.63646   4.72017   4.73860   4.78818   4.84198
   4.86290   4.87073   4.95683   5.01998   5.05472   5.06329   5.09944   5.14692
   5.21163   5.23090   5.30853   5.32860   5.35358   5.41495   5.41932   5.44610
   5.51562   5.55941   5.57872   5.59143   5.64098   5.65936   5.67362   5.70399
   5.74390   5.80060   5.83424   5.84591   5.85069   5.87805   5.94213   5.95210
   5.99317   6.06744   6.13818   6.14445   6.16984   6.25259   6.41285   6.68181
   6.71258


              NET ATOMIC CHARGES AND DIPOLE CONTRIBUTIONS

  ATOM NO.   TYPE          CHARGE      No. of ELECS.   s-Pop       p-Pop       
    1          O          -0.532298        6.5323     1.87949     4.65281
    2          C           0.573995        3.4260     1.09069     2.33532
    3          C          -0.206656        4.2067     1.08031     3.12635
    4          N          -0.405188        5.4052     1.67998     3.72521
    5          C          -0.151177        4.1512     1.07528     3.07590
    6          C          -0.083051        4.0831     1.09398     2.98907
    7          O          -0.370094        6.3701     1.88049     4.48960
    8          C          -0.084686        4.0847     1.09422     2.99046
    9          C          -0.157812        4.1578     1.07653     3.08129
   10          N          -0.534514        5.5345     1.54919     3.98533
   11          C           0.160615        3.8394     1.05525     2.78413
   12          C          -0.182158        4.1822     1.08377     3.09839
   13          C          -0.141086        4.1411     1.08349     3.05760
   14          C          -0.009314        4.0093     1.05214     2.95717
   15          C          -0.192539        4.1925     1.08363     3.10891
   16          C           0.121991        3.8780     1.07453     2.80347
   17          O          -0.371515        6.3715     1.87110     4.50042
   18          C          -0.027000        4.0270     1.08881     2.93819
   19          C          -0.203452        4.2035     1.05422     3.14923
   20          C          -0.299740        4.2997     1.05181     3.24793
   21          C          -0.319209        4.3192     1.04981     3.26940
   22          C          -0.097771        4.0978     1.05423     3.04355
   23          C          -0.076322        4.0763     1.08862     2.98770
   24          C          -0.217356        4.2174     1.07932     3.13803
   25          C          -0.031684        4.0317     1.09119     2.94050
   26          C          -0.249731        4.2497     1.07883     3.17090
   27          C           0.528702        3.4713     1.07699     2.39431
   28          O          -0.482885        6.4829     1.87987     4.60302
   29          C          -0.574075        4.5741     1.06413     3.50995
   30          C           0.470528        3.5295     1.08385     2.44563
   31          O          -0.305830        6.3058     1.85700     4.44883
   32          C           0.246688        3.7533     1.08557     2.66775
   33          N          -0.400466        5.4005     1.59688     3.80359
   34          C          -0.123190        4.1232     1.07598     3.04720
   35          C          -0.052345        4.0523     1.09263     2.95972
   36          O          -0.374765        6.3748     1.88117     4.49360
   37          C          -0.053515        4.0535     1.09149     2.96203
   38          C          -0.125611        4.1256     1.07672     3.04889
   39          H           0.179889        0.8201     0.82011
   40          H           0.171361        0.8286     0.82864
   41          H           0.144681        0.8553     0.85532
   42          H           0.149024        0.8510     0.85098
   43          H           0.121113        0.8789     0.87889
   44          H           0.144280        0.8557     0.85572
   45          H           0.146641        0.8534     0.85336
   46          H           0.122138        0.8779     0.87786
   47          H           0.149960        0.8500     0.85004
   48          H           0.154291        0.8457     0.84571
   49          H           0.347611        0.6524     0.65239
   50          H           0.197636        0.8024     0.80236
   51          H           0.164558        0.8354     0.83544
   52          H           0.169039        0.8310     0.83096
   53          H           0.133088        0.8669     0.86691
   54          H           0.146394        0.8536     0.85361
   55          H           0.168447        0.8316     0.83155
   56          H           0.163207        0.8368     0.83679
   57          H           0.159025        0.8410     0.84098
   58          H           0.155640        0.8444     0.84436
   59          H           0.154513        0.8455     0.84549
   60          H           0.159913        0.8401     0.84009
   61          H           0.158978        0.8410     0.84102
   62          H           0.176122        0.8239     0.82388
   63          H           0.201526        0.7985     0.79847
   64          H           0.174889        0.8251     0.82511
   65          H           0.148053        0.8519     0.85195
   66          H           0.155480        0.8445     0.84452
   67          H           0.131358        0.8686     0.86864
   68          H           0.134004        0.8660     0.86600
   69          H           0.144386        0.8556     0.85561
   70          H           0.159711        0.8403     0.84029
   71          H           0.147561        0.8524     0.85244
 DIPOLE           X         Y         Z       TOTAL
 POINT-CHG.    -7.355     2.634    -1.406     7.938
 HYBRID        -1.039    -0.700    -0.434     1.326
 SUM           -8.395     1.934    -1.840     8.809


          ATOMIC ORBITAL ELECTRON POPULATIONS

     Atom    s        px        py        pz   
    1  O   1.87949   1.54366   1.48041   1.62874
    2  C   1.09069   0.85962   0.74260   0.73310
    3  C   1.08031   0.96422   1.08784   1.07429
    4  N   1.67998   1.23686   1.30866   1.17969
    5  C   1.07528   0.99401   1.02164   1.06024
    6  C   1.09398   1.05790   0.86622   1.06495
    7  O   1.88049   1.95506   1.28611   1.24843
    8  C   1.09422   1.06104   1.10054   0.82888
    9  C   1.07653   1.03135   1.07227   0.97767
   10  N   1.54919   1.18138   1.42876   1.37519
   11  C   1.05525   0.85834   0.97283   0.95297
   12  C   1.08377   0.97234   1.07715   1.04890
   13  C   1.08349   1.04457   1.02305   0.98997
   14  C   1.05214   0.95683   0.98821   1.01213
   15  C   1.08363   0.98644   1.07973   1.04273
   16  C   1.07453   0.88173   0.91024   1.01151
   17  O   1.87110   1.45098   1.40405   1.64539
   18  C   1.08881   1.13053   0.86816   0.93949
   19  C   1.05422   1.09663   1.10582   0.94678
   20  C   1.05181   1.07824   1.06290   1.10679
   21  C   1.04981   1.14307   1.02171   1.10462
   22  C   1.05423   0.97210   1.08405   0.98739
   23  C   1.08862   1.04868   0.93991   0.99910
   24  C   1.07932   0.98821   1.06232   1.08751
   25  C   1.09119   1.06156   0.90859   0.97035
   26  C   1.07883   1.02205   1.11419   1.03465
   27  C   1.07699   0.82802   0.69991   0.86638
   28  O   1.87987   1.34117   1.45054   1.81131
   29  C   1.06413   1.04937   1.34978   1.11079
   30  C   1.08385   0.84349   0.84754   0.75460
   31  O   1.85700   1.41917   1.75606   1.27360
   32  C   1.08557   0.97069   0.92397   0.77309
   33  N   1.59688   1.12962   1.57155   1.10241
   34  C   1.07598   0.89177   1.08892   1.06651
   35  C   1.09263   0.95183   1.11647   0.89142
   36  O   1.88117   1.29099   1.63205   1.57055
   37  C   1.09149   0.88423   1.07014   1.00766
   38  C   1.07672   0.98962   1.13089   0.92838
   39  H   0.82011
   40  H   0.82864
   41  H   0.85532
   42  H   0.85098
   43  H   0.87889
   44  H   0.85572
   45  H   0.85336
   46  H   0.87786
   47  H   0.85004
   48  H   0.84571
   49  H   0.65239
   50  H   0.80236
   51  H   0.83544
   52  H   0.83096
   53  H   0.86691
   54  H   0.85361
   55  H   0.83155
   56  H   0.83679
   57  H   0.84098
   58  H   0.84436
   59  H   0.84549
   60  H   0.84009
   61  H   0.84102
   62  H   0.82388
   63  H   0.79847
   64  H   0.82511
   65  H   0.85195
   66  H   0.84452
   67  H   0.86864
   68  H   0.86600
   69  H   0.85561
   70  H   0.84029
   71  H   0.85244

 **********************
 *                    *
 * JOB ENDED NORMALLY *
 *                    *
 **********************



 TOTAL JOB TIME:            49.73 SECONDS

 == MOPAC DONE ==
