 *******************************************************************************
 **                                                                           **
 **                              MOPAC v23.0.3                                **
 **                                                                           **
 *******************************************************************************
 **          Digital Object Identifier (DOI): 10.5281/zenodo.6511958          **
 **    Visit the DOI location for information on how to cite this program.    **
 *******************************************************************************

                              PM7 CALCULATION RESULTS

 *******************************************************************************
 *  CALCULATION DONE:                                Fri Jul 25 19:08:49 2025  *
 *  PM7        - The PM7 Hamiltonian to be used
 *  XYZ        - CARTESIAN COORDINATE SYSTEM TO BE USED
 *  T=         - A TIME OF 172800.0 SECONDS REQUESTED
 *  DUMP=N     - RESTART FILE WRITTEN EVERY 7200.0 SECONDS REQUESTED
 *******************************************************************************
PM7 XYZ

 Lipophilicity_21 - geometry optimisation
   ATOM   CHEMICAL          X               Y               Z
  NUMBER   SYMBOL      (ANGSTROMS)     (ANGSTROMS)     (ANGSTROMS)

     1       O          1.07443600  *  -1.70132100  *  -0.14818200  *
     2       C          1.07010000  *  -0.47062500  *   0.12822300  *
     3       N         -0.16735300  *   0.26064200  *   0.10201100  *
     4       C         -1.46246900  *  -0.35611800  *   0.20979700  *
     5       C         -1.65834800  *  -1.51208700  *   0.98420200  *
     6       C         -2.92879400  *  -2.07917800  *   1.09235100  *
     7       C         -4.01731700  *  -1.49515400  *   0.44174300  *
     8       C         -3.84949400  *  -0.32667900  *  -0.32146100  *
     9       C         -2.56456300  *   0.23946300  *  -0.42462000  *
    10       C         -5.01906600  *   0.28570800  *  -0.99732900  *
    11       N         -6.27284200  *  -0.20463900  *  -0.93525000  *
    12       N         -7.00654000  *   0.62394400  *  -1.66437700  *
    13       N         -6.24321600  *   1.58655600  *  -2.15792800  *
    14       N         -4.99963500  *   1.39728300  *  -1.75591000  *
    15       C          2.34876000  *   0.21674600  *   0.43306000  *
    16       C          2.37537700  *   1.45480200  *   1.12140200  *
    17       C          3.60079800  *   2.09519300  *   1.41317900  *
    18       C          4.81998300  *   1.51293400  *   1.02838700  *
    19       C          4.76751500  *   0.29400700  *   0.36068600  *
    20       N          5.78647800  *  -0.44019000  *  -0.10123900  *
    21       C          5.18770300  *  -1.51361100  *  -0.66815100  *
    22       N          3.83245400  *  -1.48453500  *  -0.58218500  *
    23       C          3.59003800  *  -0.33346100  *   0.07478600  *
    24       H         -0.12918300  *   1.28106100  *  -0.11990100  *
    25       H         -0.83691600  *  -1.96428100  *   1.52385300  *
    26       H         -3.07226500  *  -2.97063300  *   1.68937800  *
    27       H         -4.99240700  *  -1.95507600  *   0.54291700  *
    28       H         -2.40342100  *   1.13840000  *  -1.00251800  *
    29       H         -4.19592000  *   2.01394000  *  -2.00352500  *
    30       H          1.45806300  *   1.92281300  *   1.45316400  *
    31       H          3.60100600  *   3.03972200  *   1.94153500  *
    32       H          5.76434200  *   1.99479700  *   1.24602900  *
    33       H          6.80848300  *  -0.23429900  *  -0.04253600  *
    34       H          5.73421400  *  -2.31612200  *  -1.14553600  *



          CARTESIAN COORDINATES 

    NO.       ATOM           X           Y           Z

     1         O          1.0744     -1.7013     -0.1482
     2         C          1.0701     -0.4706      0.1282
     3         N         -0.1674      0.2606      0.1020
     4         C         -1.4625     -0.3561      0.2098
     5         C         -1.6583     -1.5121      0.9842
     6         C         -2.9288     -2.0792      1.0924
     7         C         -4.0173     -1.4952      0.4417
     8         C         -3.8495     -0.3267     -0.3215
     9         C         -2.5646      0.2395     -0.4246
    10         C         -5.0191      0.2857     -0.9973
    11         N         -6.2728     -0.2046     -0.9353
    12         N         -7.0065      0.6239     -1.6644
    13         N         -6.2432      1.5866     -2.1579
    14         N         -4.9996      1.3973     -1.7559
    15         C          2.3488      0.2167      0.4331
    16         C          2.3754      1.4548      1.1214
    17         C          3.6008      2.0952      1.4132
    18         C          4.8200      1.5129      1.0284
    19         C          4.7675      0.2940      0.3607
    20         N          5.7865     -0.4402     -0.1012
    21         C          5.1877     -1.5136     -0.6682
    22         N          3.8325     -1.4845     -0.5822
    23         C          3.5900     -0.3335      0.0748
    24         H         -0.1292      1.2811     -0.1199
    25         H         -0.8369     -1.9643      1.5239
    26         H         -3.0723     -2.9706      1.6894
    27         H         -4.9924     -1.9551      0.5429
    28         H         -2.4034      1.1384     -1.0025
    29         H         -4.1959      2.0139     -2.0035
    30         H          1.4581      1.9228      1.4532
    31         H          3.6010      3.0397      1.9415
    32         H          5.7643      1.9948      1.2460
    33         H          6.8085     -0.2343     -0.0425
    34         H          5.7342     -2.3161     -1.1455

 General Reference for PM7:
 "Optimization of Parameters for Semiempirical Methods VI: More Modifications to the 
 NDDO Approximations and Re-optimization of Parameters", J. J. P. Stewart, J. Mol. Mod., 1:32, 19 (2013)
 https://link.springer.com/article/10.1007/s00894-012-1667-x

           Empirical Formula: C15 H11 N7 O  =    34 atoms



      MOLECULAR POINT GROUP   :   C1  


      RHF CALCULATION, NO. OF DOUBLY OCCUPIED LEVELS = 56


          Geometry optimization using L-BFGS
 CYCLE:     1 TIME:   0.039 TIME LEFT:  2.00D  GRAD.:   336.863 HEAT:  150.2401
 CYCLE:     2 TIME:   0.023 TIME LEFT:  2.00D  GRAD.:   327.389 HEAT:  149.1212
 CYCLE:     3 TIME:   0.023 TIME LEFT:  2.00D  GRAD.:    72.571 HEAT:  127.4717
 CYCLE:     4 TIME:   0.023 TIME LEFT:  2.00D  GRAD.:   327.452 HEAT:  149.1209
 CYCLE:     5 TIME:   0.023 TIME LEFT:  2.00D  GRAD.:    72.502 HEAT:  127.4694
 CYCLE:     6 TIME:   0.023 TIME LEFT:  2.00D  GRAD.:    46.043 HEAT:  125.9489
 CYCLE:     7 TIME:   0.016 TIME LEFT:  2.00D  GRAD.:    35.853 HEAT:  124.6817
 CYCLE:     8 TIME:   0.023 TIME LEFT:  2.00D  GRAD.:    37.887 HEAT:  123.7817
 CYCLE:     9 TIME:   0.023 TIME LEFT:  2.00D  GRAD.:    27.437 HEAT:  123.2983
 CYCLE:    10 TIME:   0.016 TIME LEFT:  2.00D  GRAD.:    17.473 HEAT:  123.0630
 CYCLE:    11 TIME:   0.023 TIME LEFT:  2.00D  GRAD.:    16.676 HEAT:  122.7629
 CYCLE:    12 TIME:   0.016 TIME LEFT:  2.00D  GRAD.:    20.416 HEAT:  122.4607
 CYCLE:    13 TIME:   0.023 TIME LEFT:  2.00D  GRAD.:    37.402 HEAT:  122.1783
 CYCLE:    14 TIME:   0.023 TIME LEFT:  2.00D  GRAD.:    16.688 HEAT:  121.7932
 CYCLE:    15 TIME:   0.016 TIME LEFT:  2.00D  GRAD.:    13.465 HEAT:  121.5873
 CYCLE:    16 TIME:   0.023 TIME LEFT:  2.00D  GRAD.:    13.537 HEAT:  121.3921
 CYCLE:    17 TIME:   0.016 TIME LEFT:  2.00D  GRAD.:    28.883 HEAT:  121.2826
 CYCLE:    18 TIME:   0.023 TIME LEFT:  2.00D  GRAD.:    10.073 HEAT:  121.1013
 CYCLE:    19 TIME:   0.016 TIME LEFT:  2.00D  GRAD.:     7.727 HEAT:  121.0309
 CYCLE:    20 TIME:   0.023 TIME LEFT:  2.00D  GRAD.:     8.957 HEAT:  120.9617
 CYCLE:    21 TIME:   0.016 TIME LEFT:  2.00D  GRAD.:    26.175 HEAT:  120.9703
 CYCLE:    22 TIME:   0.023 TIME LEFT:  2.00D  GRAD.:     7.464 HEAT:  120.8766
 CYCLE:    23 TIME:   0.016 TIME LEFT:  2.00D  GRAD.:     5.227 HEAT:  120.8504
 CYCLE:    24 TIME:   0.023 TIME LEFT:  2.00D  GRAD.:     7.079 HEAT:  120.8113
 CYCLE:    25 TIME:   0.016 TIME LEFT:  2.00D  GRAD.:     7.793 HEAT:  120.7602
 CYCLE:    26 TIME:   0.023 TIME LEFT:  2.00D  GRAD.:    14.544 HEAT:  120.6739
 CYCLE:    27 TIME:   0.023 TIME LEFT:  2.00D  GRAD.:    12.671 HEAT:  120.6148
 CYCLE:    28 TIME:   0.016 TIME LEFT:  2.00D  GRAD.:     6.192 HEAT:  120.5478
 CYCLE:    29 TIME:   0.016 TIME LEFT:  2.00D  GRAD.:     6.966 HEAT:  120.4885
 CYCLE:    30 TIME:   0.023 TIME LEFT:  2.00D  GRAD.:    10.742 HEAT:  120.3962
 CYCLE:    31 TIME:   0.023 TIME LEFT:  2.00D  GRAD.:    14.769 HEAT:  120.2943
 CYCLE:    32 TIME:   0.023 TIME LEFT:  2.00D  GRAD.:    13.694 HEAT:  120.1851
 CYCLE:    33 TIME:   0.023 TIME LEFT:  2.00D  GRAD.:    15.359 HEAT:  120.0664
 CYCLE:    34 TIME:   0.016 TIME LEFT:  2.00D  GRAD.:    14.220 HEAT:  119.8692
 CYCLE:    35 TIME:   0.023 TIME LEFT:  2.00D  GRAD.:    13.842 HEAT:  119.7143
 CYCLE:    36 TIME:   0.023 TIME LEFT:  2.00D  GRAD.:    12.059 HEAT:  119.5931
 CYCLE:    37 TIME:   0.016 TIME LEFT:  2.00D  GRAD.:    16.088 HEAT:  119.4900
 CYCLE:    38 TIME:   0.023 TIME LEFT:  2.00D  GRAD.:    31.867 HEAT:  119.5833
 CYCLE:    39 TIME:   0.023 TIME LEFT:  2.00D  GRAD.:    16.970 HEAT:  119.4383
 CYCLE:    40 TIME:   0.023 TIME LEFT:  2.00D  GRAD.:     5.649 HEAT:  119.3588
 CYCLE:    41 TIME:   0.047 TIME LEFT:  2.00D  GRAD.:    10.302 HEAT:  119.3197
 CYCLE:    42 TIME:   0.031 TIME LEFT:  2.00D  GRAD.:    11.169 HEAT:  119.2762
 CYCLE:    43 TIME:   0.031 TIME LEFT:  2.00D  GRAD.:    32.250 HEAT:  119.2131
 CYCLE:    44 TIME:   0.016 TIME LEFT:  2.00D  GRAD.:     8.971 HEAT:  119.0337
 CYCLE:    45 TIME:   0.023 TIME LEFT:  2.00D  GRAD.:     7.127 HEAT:  118.9926
 CYCLE:    46 TIME:   0.016 TIME LEFT:  2.00D  GRAD.:    10.584 HEAT:  118.9254
 CYCLE:    47 TIME:   0.023 TIME LEFT:  2.00D  GRAD.:    13.692 HEAT:  118.8291
 CYCLE:    48 TIME:   0.023 TIME LEFT:  2.00D  GRAD.:    19.524 HEAT:  118.7337
 CYCLE:    49 TIME:   0.023 TIME LEFT:  2.00D  GRAD.:    11.065 HEAT:  118.6211
 CYCLE:    50 TIME:   0.016 TIME LEFT:  2.00D  GRAD.:    21.905 HEAT:  118.5861
 CYCLE:    51 TIME:   0.023 TIME LEFT:  2.00D  GRAD.:    13.943 HEAT:  118.4922
 CYCLE:    52 TIME:   0.016 TIME LEFT:  2.00D  GRAD.:     7.683 HEAT:  118.4230
 CYCLE:    53 TIME:   0.023 TIME LEFT:  2.00D  GRAD.:    10.165 HEAT:  118.3482
 CYCLE:    54 TIME:   0.023 TIME LEFT:  2.00D  GRAD.:    13.310 HEAT:  118.2710
 CYCLE:    55 TIME:   0.016 TIME LEFT:  2.00D  GRAD.:    24.400 HEAT:  118.1742
 CYCLE:    56 TIME:   0.031 TIME LEFT:  2.00D  GRAD.:    11.876 HEAT:  118.0146
 CYCLE:    57 TIME:   0.016 TIME LEFT:  2.00D  GRAD.:     9.040 HEAT:  117.8924
 CYCLE:    58 TIME:   0.023 TIME LEFT:  2.00D  GRAD.:    10.693 HEAT:  117.7856
 CYCLE:    59 TIME:   0.023 TIME LEFT:  2.00D  GRAD.:    15.146 HEAT:  117.7511
 CYCLE:    60 TIME:   0.023 TIME LEFT:  2.00D  GRAD.:    22.011 HEAT:  117.6453
 CYCLE:    61 TIME:   0.016 TIME LEFT:  2.00D  GRAD.:    10.102 HEAT:  117.5117
 CYCLE:    62 TIME:   0.023 TIME LEFT:  2.00D  GRAD.:    12.754 HEAT:  117.4282
 CYCLE:    63 TIME:   0.023 TIME LEFT:  2.00D  GRAD.:    11.811 HEAT:  117.3115
 CYCLE:    64 TIME:   0.016 TIME LEFT:  2.00D  GRAD.:    13.762 HEAT:  117.1162
 CYCLE:    65 TIME:   0.023 TIME LEFT:  2.00D  GRAD.:    24.034 HEAT:  117.0678
 CYCLE:    66 TIME:   0.023 TIME LEFT:  2.00D  GRAD.:     9.037 HEAT:  116.9480
 CYCLE:    67 TIME:   0.016 TIME LEFT:  2.00D  GRAD.:     7.672 HEAT:  116.9046
 CYCLE:    68 TIME:   0.023 TIME LEFT:  2.00D  GRAD.:     9.492 HEAT:  116.8070
 CYCLE:    69 TIME:   0.016 TIME LEFT:  2.00D  GRAD.:    22.141 HEAT:  116.7474
 CYCLE:    70 TIME:   0.023 TIME LEFT:  2.00D  GRAD.:     9.927 HEAT:  116.6123
 CYCLE:    71 TIME:   0.016 TIME LEFT:  2.00D  GRAD.:     6.766 HEAT:  116.5613
 CYCLE:    72 TIME:   0.023 TIME LEFT:  2.00D  GRAD.:     8.120 HEAT:  116.5013
 CYCLE:    73 TIME:   0.023 TIME LEFT:  2.00D  GRAD.:    11.363 HEAT:  116.4291
 CYCLE:    74 TIME:   0.016 TIME LEFT:  2.00D  GRAD.:    12.296 HEAT:  116.3533
 CYCLE:    75 TIME:   0.023 TIME LEFT:  2.00D  GRAD.:     7.306 HEAT:  116.2908
 CYCLE:    76 TIME:   0.016 TIME LEFT:  2.00D  GRAD.:     6.985 HEAT:  116.2501
 CYCLE:    77 TIME:   0.023 TIME LEFT:  2.00D  GRAD.:     9.052 HEAT:  116.1979
 CYCLE:    78 TIME:   0.023 TIME LEFT:  2.00D  GRAD.:    16.441 HEAT:  116.1470
 CYCLE:    79 TIME:   0.023 TIME LEFT:  2.00D  GRAD.:     9.454 HEAT:  116.0858
 CYCLE:    80 TIME:   0.016 TIME LEFT:  2.00D  GRAD.:     8.781 HEAT:  116.0510
 CYCLE:    81 TIME:   0.023 TIME LEFT:  2.00D  GRAD.:     5.569 HEAT:  116.0246
 CYCLE:    82 TIME:   0.016 TIME LEFT:  2.00D  GRAD.:     5.338 HEAT:  115.9953
 CYCLE:    83 TIME:   0.023 TIME LEFT:  2.00D  GRAD.:     7.320 HEAT:  115.9640
 CYCLE:    84 TIME:   0.023 TIME LEFT:  2.00D  GRAD.:     9.108 HEAT:  115.9357
 CYCLE:    85 TIME:   0.016 TIME LEFT:  2.00D  GRAD.:     4.566 HEAT:  115.9098
 CYCLE:    86 TIME:   0.023 TIME LEFT:  2.00D  GRAD.:     4.355 HEAT:  115.8923
 CYCLE:    87 TIME:   0.016 TIME LEFT:  2.00D  GRAD.:     5.160 HEAT:  115.8729
 CYCLE:    88 TIME:   0.023 TIME LEFT:  2.00D  GRAD.:    10.451 HEAT:  115.8581
 CYCLE:    89 TIME:   0.016 TIME LEFT:  2.00D  GRAD.:     4.672 HEAT:  115.8314
 CYCLE:    90 TIME:   0.023 TIME LEFT:  2.00D  GRAD.:     2.952 HEAT:  115.8208
 CYCLE:    91 TIME:   0.016 TIME LEFT:  2.00D  GRAD.:     2.952 HEAT:  115.8105
 CYCLE:    92 TIME:   0.023 TIME LEFT:  2.00D  GRAD.:     6.692 HEAT:  115.8019
 CYCLE:    93 TIME:   0.016 TIME LEFT:  2.00D  GRAD.:     3.767 HEAT:  115.7917
 CYCLE:    94 TIME:   0.023 TIME LEFT:  2.00D  GRAD.:     2.894 HEAT:  115.7829
 CYCLE:    95 TIME:   0.016 TIME LEFT:  2.00D  GRAD.:     3.384 HEAT:  115.7761
 CYCLE:    96 TIME:   0.023 TIME LEFT:  2.00D  GRAD.:     3.896 HEAT:  115.7688
 CYCLE:    97 TIME:   0.016 TIME LEFT:  2.00D  GRAD.:     2.627 HEAT:  115.7621
 CYCLE:    98 TIME:   0.023 TIME LEFT:  2.00D  GRAD.:     2.604 HEAT:  115.7547
 CYCLE:    99 TIME:   0.016 TIME LEFT:  2.00D  GRAD.:     3.704 HEAT:  115.7477
 CYCLE:   100 TIME:   0.023 TIME LEFT:  2.00D  GRAD.:     3.488 HEAT:  115.7395
 CYCLE:   101 TIME:   0.016 TIME LEFT:  2.00D  GRAD.:     2.932 HEAT:  115.7312
 CYCLE:   102 TIME:   0.023 TIME LEFT:  2.00D  GRAD.:     4.028 HEAT:  115.7215
 CYCLE:   103 TIME:   0.016 TIME LEFT:  2.00D  GRAD.:     3.852 HEAT:  115.7129
 CYCLE:   104 TIME:   0.023 TIME LEFT:  2.00D  GRAD.:     3.630 HEAT:  115.7016
 CYCLE:   105 TIME:   0.023 TIME LEFT:  2.00D  GRAD.:     4.219 HEAT:  115.6874
 CYCLE:   106 TIME:   0.023 TIME LEFT:  2.00D  GRAD.:     5.492 HEAT:  115.6757
 CYCLE:   107 TIME:   0.016 TIME LEFT:  2.00D  GRAD.:     5.989 HEAT:  115.6644
 CYCLE:   108 TIME:   0.023 TIME LEFT:  2.00D  GRAD.:     3.628 HEAT:  115.6506
 CYCLE:   109 TIME:   0.047 TIME LEFT:  2.00D  GRAD.:     3.613 HEAT:  115.6381
 CYCLE:   110 TIME:   0.023 TIME LEFT:  2.00D  GRAD.:     3.952 HEAT:  115.6276
 CYCLE:   111 TIME:   0.023 TIME LEFT:  2.00D  GRAD.:     3.369 HEAT:  115.6181
 CYCLE:   112 TIME:   0.016 TIME LEFT:  2.00D  GRAD.:     5.009 HEAT:  115.6099
 CYCLE:   113 TIME:   0.023 TIME LEFT:  2.00D  GRAD.:     3.101 HEAT:  115.6006
 CYCLE:   114 TIME:   0.016 TIME LEFT:  2.00D  GRAD.:     2.818 HEAT:  115.5926
 CYCLE:   115 TIME:   0.023 TIME LEFT:  2.00D  GRAD.:     3.544 HEAT:  115.5812
 CYCLE:   116 TIME:   0.023 TIME LEFT:  2.00D  GRAD.:     4.427 HEAT:  115.5703
 CYCLE:   117 TIME:   0.016 TIME LEFT:  2.00D  GRAD.:     4.170 HEAT:  115.5590
 CYCLE:   118 TIME:   0.023 TIME LEFT:  2.00D  GRAD.:     4.125 HEAT:  115.5495
 CYCLE:   119 TIME:   0.016 TIME LEFT:  2.00D  GRAD.:     4.439 HEAT:  115.5328
 CYCLE:   120 TIME:   0.023 TIME LEFT:  2.00D  GRAD.:     5.607 HEAT:  115.5265
 CYCLE:   121 TIME:   0.016 TIME LEFT:  2.00D  GRAD.:     2.484 HEAT:  115.5178
 CYCLE:   122 TIME:   0.023 TIME LEFT:  2.00D  GRAD.:     2.438 HEAT:  115.5136
 CYCLE:   123 TIME:   0.023 TIME LEFT:  2.00D  GRAD.:     2.962 HEAT:  115.5070
 CYCLE:   124 TIME:   0.016 TIME LEFT:  2.00D  GRAD.:     4.981 HEAT:  115.4973
 CYCLE:   125 TIME:   0.023 TIME LEFT:  2.00D  GRAD.:     3.534 HEAT:  115.4855
 CYCLE:   126 TIME:   0.023 TIME LEFT:  2.00D  GRAD.:     4.266 HEAT:  115.4721
 CYCLE:   127 TIME:   0.016 TIME LEFT:  2.00D  GRAD.:     6.545 HEAT:  115.4475
 CYCLE:   128 TIME:   0.023 TIME LEFT:  2.00D  GRAD.:     5.947 HEAT:  115.4277
 CYCLE:   129 TIME:   0.023 TIME LEFT:  2.00D  GRAD.:     5.939 HEAT:  115.4076
 CYCLE:   130 TIME:   0.016 TIME LEFT:  2.00D  GRAD.:     5.680 HEAT:  115.3873
 CYCLE:   131 TIME:   0.023 TIME LEFT:  2.00D  GRAD.:     5.679 HEAT:  115.3664
 CYCLE:   132 TIME:   0.023 TIME LEFT:  2.00D  GRAD.:     5.789 HEAT:  115.3524
 CYCLE:   133 TIME:   0.016 TIME LEFT:  2.00D  GRAD.:     8.083 HEAT:  115.3503
 CYCLE:   134 TIME:   0.023 TIME LEFT:  2.00D  GRAD.:    55.776 HEAT:  115.8256
 CYCLE:   135 TIME:   0.023 TIME LEFT:  2.00D  GRAD.:   108.606 HEAT:  118.0234
 CYCLE:   136 TIME:   0.023 TIME LEFT:  2.00D  GRAD.:   103.972 HEAT:  117.5914
 CYCLE:   137 TIME:   0.023 TIME LEFT:  2.00D  GRAD.:    99.084 HEAT:  117.2703
 CYCLE:   138 TIME:   0.023 TIME LEFT:  2.00D  GRAD.:    89.689 HEAT:  116.9977
 CYCLE:   139 TIME:   0.023 TIME LEFT:  2.00D  GRAD.:    88.616 HEAT:  116.7787
 CYCLE:   140 TIME:   0.023 TIME LEFT:  2.00D  GRAD.:   162.078 HEAT:  120.8785
 CYCLE:   141 TIME:   0.031 TIME LEFT:  2.00D  GRAD.:  1024.846 HEAT:  250.0614
 CYCLE:   142 TIME:   0.023 TIME LEFT:  2.00D  GRAD.:   799.425 HEAT:  210.6775
 CYCLE:   143 TIME:   0.023 TIME LEFT:  2.00D  GRAD.:   579.639 HEAT:  172.5657
 CYCLE:   144 TIME:   0.023 TIME LEFT:  2.00D  GRAD.:   408.857 HEAT:  150.8631
 CYCLE:   145 TIME:   0.023 TIME LEFT:  2.00D  GRAD.:   244.581 HEAT:  140.9923
 CYCLE:   146 TIME:   0.031 TIME LEFT:  2.00D  GRAD.:   215.619 HEAT:  154.8002
 CYCLE:   147 TIME:   0.023 TIME LEFT:  2.00D  GRAD.:   304.892 HEAT:  145.0243
 CYCLE:   148 TIME:   0.031 TIME LEFT:  2.00D  GRAD.:  2718.873 HEAT:  988.4618
 CYCLE:   149 TIME:   0.023 TIME LEFT:  2.00D  GRAD.:  2424.490 HEAT:  832.7530
 CYCLE:   150 TIME:   0.031 TIME LEFT:  2.00D  GRAD.:   894.749 HEAT:  334.0229
 CYCLE:   151 TIME:   0.031 TIME LEFT:  2.00D  GRAD.:   901.121 HEAT:  284.3903
 CYCLE:   152 TIME:   0.031 TIME LEFT:  2.00D  GRAD.:  1291.416 HEAT:  490.2704
 CYCLE:   153 TIME:   0.031 TIME LEFT:  2.00D  GRAD.:  2574.961 HEAT:  882.1882
 CYCLE:   154 TIME:   0.031 TIME LEFT:  2.00D  GRAD.:  1642.464 HEAT:  532.1050
 CYCLE:   155 TIME:   0.031 TIME LEFT:  2.00D  GRAD.:   738.174 HEAT:  304.7211
 CYCLE:   156 TIME:   0.023 TIME LEFT:  2.00D  GRAD.:   665.449 HEAT:  331.5703
 CYCLE:   157 TIME:   0.031 TIME LEFT:  2.00D  GRAD.:  1277.633 HEAT:  410.0092
 CYCLE:   158 TIME:   0.039 TIME LEFT:  2.00D  GRAD.:   394.489 HEAT:  267.3194
 CYCLE:   159 TIME:   0.031 TIME LEFT:  2.00D  GRAD.:   373.646 HEAT:  203.1536
 CYCLE:   160 TIME:   0.039 TIME LEFT:  2.00D  GRAD.:  1415.386 HEAT:  358.7373
 CYCLE:   161 TIME:   0.031 TIME LEFT:  2.00D  GRAD.:   431.081 HEAT:  192.1819
 CYCLE:   162 TIME:   0.039 TIME LEFT:  2.00D  GRAD.:   434.953 HEAT:  257.3251
 CYCLE:   163 TIME:   0.031 TIME LEFT:  2.00D  GRAD.:   380.544 HEAT:  183.4488


           HEAT OF FORMATION IS ESSENTIALLY STATIONARY


          CURRENT BEST VALUE OF HEAT OF FORMATION =    115.350596

 PM7 XYZ

 Lipophilicity_21 - geometry optimisation
  O     0.58246644 +1  -0.81426317 +1   2.43648664 +1
  C     0.90398037 +1  -0.31460503 +1   1.38611205 +1
  N     0.03504855 +1  -0.23852271 +1   0.29719600 +1
  C    -1.28472421 +1  -0.74854137 +1   0.30488454 +1
  C    -1.64892977 +1  -1.91962480 +1   0.98971893 +1
  C    -2.96732885 +1  -2.35900072 +1   0.94172543 +1
  C    -3.93440956 +1  -1.65430560 +1   0.22289594 +1
  C    -3.56641324 +1  -0.49214848 +1  -0.45809222 +1
  C    -2.24657471 +1  -0.03645899 +1  -0.42632922 +1
  C    -4.58174369 +1   0.27708278 +1  -1.14819256 +1
  N    -5.93525559 +1   0.18849913 +1  -1.03130280 +1
  N    -6.47322843 +1   1.15422195 +1  -1.79559702 +1
  N    -5.56189932 +1   1.84808144 +1  -2.39943559 +1
  N    -4.34886367 +1   1.33987157 +1  -2.03530270 +1
  C     2.20805696 +1   0.37109143 +1   1.14403044 +1
  C     2.50164100 +1   1.55028128 +1   1.80595931 +1
  C     3.72382149 +1   2.22666446 +1   1.60114063 +1
  C     4.68993223 +1   1.74020012 +1   0.73793620 +1
  C     4.40607536 +1   0.54391837 +1   0.07352832 +1
  N     5.12472787 +1  -0.21683040 +1  -0.85378082 +1
  C     4.31183549 +1  -1.31278273 +1  -1.19717783 +1
  N     3.14439598 +1  -1.28453642 +1  -0.55494279 +1
  C     3.15761647 +1  -0.14659232 +1   0.25968121 +1
  H     0.38862210 +1   0.10809837 +1  -0.58948880 +1
  H    -0.89578119 +1  -2.47959108 +1   1.54989521 +1
  H    -3.25356892 +1  -3.26773728 +1   1.47298832 +1
  H    -4.97476988 +1  -1.99358512 +1   0.20030890 +1
  H    -1.96341220 +1   0.87787882 +1  -0.93731997 +1
  H    -3.49416086 +1   1.71330285 +1  -2.39955192 +1
  H     1.77504854 +1   1.97775967 +1   2.50163756 +1
  H     3.89804325 +1   3.15933171 +1   2.14116793 +1
  H     5.62395898 +1   2.27242814 +1   0.57822816 +1
  H     6.03356333 +1  -0.00146028 +1  -1.19645582 +1
  H     4.62226492 +1  -2.06810029 +1  -1.90647741 +1



 -------------------------------------------------------------------------------
 PM7 XYZ

 Lipophilicity_21 - geometry optimisation


     HERBERTS TEST WAS SATISFIED IN BFGS                      
     SCF FIELD WAS ACHIEVED                                   


                              PM7 CALCULATION
                                                       MOPAC v23.0.3 Linux
                                                       Fri Jul 25 19:08:53 2025




          FINAL HEAT OF FORMATION =        115.35060 KCAL/MOL =     482.62689 KJ/MOL


          COSMO AREA              =        314.95 SQUARE ANGSTROMS
          COSMO VOLUME            =        338.37 CUBIC ANGSTROMS

          GRADIENT NORM           =          8.08329          =       1.38627 PER ATOM
          IONIZATION POTENTIAL    =          9.290153 EV
          HOMO LUMO ENERGIES (EV) =         -9.290 -1.095
          NO. OF FILLED LEVELS    =         56
          MOLECULAR WEIGHT        =        305.2982         POINT GROUP:  C1  

          MOLECULAR DIMENSIONS (Angstroms)

            Atom       Atom       Distance
            H    33    N    12    12.57436
            H    26    H    31     7.06683
            O     1    H    29     4.72814


          SCF CALCULATIONS        =        165

          WALL-CLOCK TIME         =      3.758 SECONDS
          COMPUTATION TIME        =          1 MINUTE AND 14.727 SECONDS



       FINAL  POINT  AND  DERIVATIVES

   PARAMETER     ATOM    TYPE            VALUE        GRADIENT
      1          1  O    CARTESIAN X     0.582466      0.335232  KCAL/ANGSTROM
      2          1  O    CARTESIAN Y    -0.814263      0.201469  KCAL/ANGSTROM
      3          1  O    CARTESIAN Z     2.436487     -0.111838  KCAL/ANGSTROM
      4          2  C    CARTESIAN X     0.903980     -0.277334  KCAL/ANGSTROM
      5          2  C    CARTESIAN Y    -0.314605     -0.116170  KCAL/ANGSTROM
      6          2  C    CARTESIAN Z     1.386112      1.332025  KCAL/ANGSTROM
      7          3  N    CARTESIAN X     0.035049     -1.196549  KCAL/ANGSTROM
      8          3  N    CARTESIAN Y    -0.238523      1.512170  KCAL/ANGSTROM
      9          3  N    CARTESIAN Z     0.297196      0.737086  KCAL/ANGSTROM
     10          4  C    CARTESIAN X    -1.284724      1.506551  KCAL/ANGSTROM
     11          4  C    CARTESIAN Y    -0.748541      0.763477  KCAL/ANGSTROM
     12          4  C    CARTESIAN Z     0.304885      0.828442  KCAL/ANGSTROM
     13          5  C    CARTESIAN X    -1.648930     -0.982443  KCAL/ANGSTROM
     14          5  C    CARTESIAN Y    -1.919625     -1.028970  KCAL/ANGSTROM
     15          5  C    CARTESIAN Z     0.989719      0.483360  KCAL/ANGSTROM
     16          6  C    CARTESIAN X    -2.967329      0.145405  KCAL/ANGSTROM
     17          6  C    CARTESIAN Y    -2.359001     -0.266089  KCAL/ANGSTROM
     18          6  C    CARTESIAN Z     0.941725      0.433405  KCAL/ANGSTROM
     19          7  C    CARTESIAN X    -3.934410     -1.461861  KCAL/ANGSTROM
     20          7  C    CARTESIAN Y    -1.654306      0.372793  KCAL/ANGSTROM
     21          7  C    CARTESIAN Z     0.222896     -1.103312  KCAL/ANGSTROM
     22          8  C    CARTESIAN X    -3.566413      0.721711  KCAL/ANGSTROM
     23          8  C    CARTESIAN Y    -0.492148     -0.492928  KCAL/ANGSTROM
     24          8  C    CARTESIAN Z    -0.458092     -0.483922  KCAL/ANGSTROM
     25          9  C    CARTESIAN X    -2.246575     -1.440511  KCAL/ANGSTROM
     26          9  C    CARTESIAN Y    -0.036459     -0.270627  KCAL/ANGSTROM
     27          9  C    CARTESIAN Z    -0.426329      0.265390  KCAL/ANGSTROM
     28         10  C    CARTESIAN X    -4.581744      0.054894  KCAL/ANGSTROM
     29         10  C    CARTESIAN Y     0.277083     -0.791327  KCAL/ANGSTROM
     30         10  C    CARTESIAN Z    -1.148193     -0.576939  KCAL/ANGSTROM
     31         11  N    CARTESIAN X    -5.935256     -0.374786  KCAL/ANGSTROM
     32         11  N    CARTESIAN Y     0.188499     -0.012825  KCAL/ANGSTROM
     33         11  N    CARTESIAN Z    -1.031303     -0.992383  KCAL/ANGSTROM
     34         12  N    CARTESIAN X    -6.473228      1.972850  KCAL/ANGSTROM
     35         12  N    CARTESIAN Y     1.154222      0.959317  KCAL/ANGSTROM
     36         12  N    CARTESIAN Z    -1.795597      0.514113  KCAL/ANGSTROM
     37         13  N    CARTESIAN X    -5.561899     -0.188047  KCAL/ANGSTROM
     38         13  N    CARTESIAN Y     1.848081     -0.632313  KCAL/ANGSTROM
     39         13  N    CARTESIAN Z    -2.399436      2.034508  KCAL/ANGSTROM
     40         14  N    CARTESIAN X    -4.348864     -0.261748  KCAL/ANGSTROM
     41         14  N    CARTESIAN Y     1.339872     -0.133446  KCAL/ANGSTROM
     42         14  N    CARTESIAN Z    -2.035303     -0.132900  KCAL/ANGSTROM
     43         15  C    CARTESIAN X     2.208057      2.640412  KCAL/ANGSTROM
     44         15  C    CARTESIAN Y     0.371091      0.222119  KCAL/ANGSTROM
     45         15  C    CARTESIAN Z     1.144030     -0.683183  KCAL/ANGSTROM
     46         16  C    CARTESIAN X     2.501641     -0.388422  KCAL/ANGSTROM
     47         16  C    CARTESIAN Y     1.550281     -0.907718  KCAL/ANGSTROM
     48         16  C    CARTESIAN Z     1.805959     -0.519136  KCAL/ANGSTROM
     49         17  C    CARTESIAN X     3.723821      1.392730  KCAL/ANGSTROM
     50         17  C    CARTESIAN Y     2.226664      0.693614  KCAL/ANGSTROM
     51         17  C    CARTESIAN Z     1.601141     -0.258337  KCAL/ANGSTROM
     52         18  C    CARTESIAN X     4.689932     -0.161968  KCAL/ANGSTROM
     53         18  C    CARTESIAN Y     1.740200     -0.030498  KCAL/ANGSTROM
     54         18  C    CARTESIAN Z     0.737936      0.404271  KCAL/ANGSTROM
     55         19  C    CARTESIAN X     4.406075      1.320701  KCAL/ANGSTROM
     56         19  C    CARTESIAN Y     0.543918     -0.448470  KCAL/ANGSTROM
     57         19  C    CARTESIAN Z     0.073528     -0.334857  KCAL/ANGSTROM
     58         20  N    CARTESIAN X     5.124728      0.268342  KCAL/ANGSTROM
     59         20  N    CARTESIAN Y    -0.216830      0.192789  KCAL/ANGSTROM
     60         20  N    CARTESIAN Z    -0.853781     -0.016929  KCAL/ANGSTROM
     61         21  C    CARTESIAN X     4.311835     -0.401803  KCAL/ANGSTROM
     62         21  C    CARTESIAN Y    -1.312783     -1.030940  KCAL/ANGSTROM
     63         21  C    CARTESIAN Z    -1.197178      0.498675  KCAL/ANGSTROM
     64         22  N    CARTESIAN X     3.144396      0.734008  KCAL/ANGSTROM
     65         22  N    CARTESIAN Y    -1.284536     -0.983285  KCAL/ANGSTROM
     66         22  N    CARTESIAN Z    -0.554943     -0.972464  KCAL/ANGSTROM
     67         23  C    CARTESIAN X     3.157616     -2.144164  KCAL/ANGSTROM
     68         23  C    CARTESIAN Y    -0.146592      0.784691  KCAL/ANGSTROM
     69         23  C    CARTESIAN Z     0.259681      1.729632  KCAL/ANGSTROM
     70         24  H    CARTESIAN X     0.388622      0.196155  KCAL/ANGSTROM
     71         24  H    CARTESIAN Y     0.108098     -0.621455  KCAL/ANGSTROM
     72         24  H    CARTESIAN Z    -0.589489     -0.467290  KCAL/ANGSTROM
     73         25  H    CARTESIAN X    -0.895781      0.008113  KCAL/ANGSTROM
     74         25  H    CARTESIAN Y    -2.479591     -0.805071  KCAL/ANGSTROM
     75         25  H    CARTESIAN Z     1.549895     -0.866052  KCAL/ANGSTROM
     76         26  H    CARTESIAN X    -3.253569     -0.123238  KCAL/ANGSTROM
     77         26  H    CARTESIAN Y    -3.267737      0.172212  KCAL/ANGSTROM
     78         26  H    CARTESIAN Z     1.472988     -0.299891  KCAL/ANGSTROM
     79         27  H    CARTESIAN X    -4.974770     -1.431457  KCAL/ANGSTROM
     80         27  H    CARTESIAN Y    -1.993585      0.297149  KCAL/ANGSTROM
     81         27  H    CARTESIAN Z     0.200309     -0.194951  KCAL/ANGSTROM
     82         28  H    CARTESIAN X    -1.963412     -0.869851  KCAL/ANGSTROM
     83         28  H    CARTESIAN Y     0.877879     -0.236734  KCAL/ANGSTROM
     84         28  H    CARTESIAN Z    -0.937320     -0.076062  KCAL/ANGSTROM
     85         29  H    CARTESIAN X    -3.494161      0.490406  KCAL/ANGSTROM
     86         29  H    CARTESIAN Y     1.713303     -0.028034  KCAL/ANGSTROM
     87         29  H    CARTESIAN Z    -2.399552     -0.205475  KCAL/ANGSTROM
     88         30  H    CARTESIAN X     1.775049     -0.000290  KCAL/ANGSTROM
     89         30  H    CARTESIAN Y     1.977760      0.445872  KCAL/ANGSTROM
     90         30  H    CARTESIAN Z     2.501638     -0.609099  KCAL/ANGSTROM
     91         31  H    CARTESIAN X     3.898043     -0.310447  KCAL/ANGSTROM
     92         31  H    CARTESIAN Y     3.159332      0.443637  KCAL/ANGSTROM
     93         31  H    CARTESIAN Z     2.141168      0.054095  KCAL/ANGSTROM
     94         32  H    CARTESIAN X     5.623959     -0.071915  KCAL/ANGSTROM
     95         32  H    CARTESIAN Y     2.272428      1.173611  KCAL/ANGSTROM
     96         32  H    CARTESIAN Z     0.578228     -0.047451  KCAL/ANGSTROM
     97         33  H    CARTESIAN X     6.033563      0.475920  KCAL/ANGSTROM
     98         33  H    CARTESIAN Y    -0.001460      0.747217  KCAL/ANGSTROM
     99         33  H    CARTESIAN Z    -1.196456      0.048216  KCAL/ANGSTROM
    100         34  H    CARTESIAN X     4.622265     -0.176618  KCAL/ANGSTROM
    101         34  H    CARTESIAN Y    -2.068100     -0.145234  KCAL/ANGSTROM
    102         34  H    CARTESIAN Z    -1.906477     -0.410757  KCAL/ANGSTROM




   ATOM   CHEMICAL          X               Y               Z
  NUMBER   SYMBOL      (ANGSTROMS)     (ANGSTROMS)     (ANGSTROMS)

     1       O          0.58246644  *  -0.81426317  *   2.43648664  *
     2       C          0.90398037  *  -0.31460503  *   1.38611205  *
     3       N          0.03504855  *  -0.23852271  *   0.29719600  *
     4       C         -1.28472421  *  -0.74854137  *   0.30488454  *
     5       C         -1.64892977  *  -1.91962480  *   0.98971893  *
     6       C         -2.96732885  *  -2.35900072  *   0.94172543  *
     7       C         -3.93440956  *  -1.65430560  *   0.22289594  *
     8       C         -3.56641324  *  -0.49214848  *  -0.45809222  *
     9       C         -2.24657471  *  -0.03645899  *  -0.42632922  *
    10       C         -4.58174369  *   0.27708278  *  -1.14819256  *
    11       N         -5.93525559  *   0.18849913  *  -1.03130280  *
    12       N         -6.47322843  *   1.15422195  *  -1.79559702  *
    13       N         -5.56189932  *   1.84808144  *  -2.39943559  *
    14       N         -4.34886367  *   1.33987157  *  -2.03530270  *
    15       C          2.20805696  *   0.37109143  *   1.14403044  *
    16       C          2.50164100  *   1.55028128  *   1.80595931  *
    17       C          3.72382149  *   2.22666446  *   1.60114063  *
    18       C          4.68993223  *   1.74020012  *   0.73793620  *
    19       C          4.40607536  *   0.54391837  *   0.07352832  *
    20       N          5.12472787  *  -0.21683040  *  -0.85378082  *
    21       C          4.31183549  *  -1.31278273  *  -1.19717783  *
    22       N          3.14439598  *  -1.28453642  *  -0.55494279  *
    23       C          3.15761647  *  -0.14659232  *   0.25968121  *
    24       H          0.38862210  *   0.10809837  *  -0.58948880  *
    25       H         -0.89578119  *  -2.47959108  *   1.54989521  *
    26       H         -3.25356892  *  -3.26773728  *   1.47298832  *
    27       H         -4.97476988  *  -1.99358512  *   0.20030890  *
    28       H         -1.96341220  *   0.87787882  *  -0.93731997  *
    29       H         -3.49416086  *   1.71330285  *  -2.39955192  *
    30       H          1.77504854  *   1.97775967  *   2.50163756  *
    31       H          3.89804325  *   3.15933171  *   2.14116793  *
    32       H          5.62395898  *   2.27242814  *   0.57822816  *
    33       H          6.03356333  *  -0.00146028  *  -1.19645582  *
    34       H          4.62226492  *  -2.06810029  *  -1.90647741  *

                             CARTESIAN COORDINATES

   1    O        0.582466437    -0.814263168     2.436486636
   2    C        0.903980366    -0.314605029     1.386112049
   3    N        0.035048551    -0.238522714     0.297196004
   4    C       -1.284724206    -0.748541371     0.304884544
   5    C       -1.648929767    -1.919624801     0.989718930
   6    C       -2.967328851    -2.359000718     0.941725433
   7    C       -3.934409565    -1.654305603     0.222895936
   8    C       -3.566413242    -0.492148478    -0.458092217
   9    C       -2.246574710    -0.036458992    -0.426329217
  10    C       -4.581743695     0.277082781    -1.148192560
  11    N       -5.935255586     0.188499134    -1.031302804
  12    N       -6.473228432     1.154221948    -1.795597024
  13    N       -5.561899321     1.848081439    -2.399435592
  14    N       -4.348863674     1.339871572    -2.035302698
  15    C        2.208056958     0.371091429     1.144030438
  16    C        2.501640999     1.550281283     1.805959313
  17    C        3.723821488     2.226664461     1.601140628
  18    C        4.689932231     1.740200121     0.737936202
  19    C        4.406075361     0.543918369     0.073528318
  20    N        5.124727871    -0.216830403    -0.853780822
  21    C        4.311835493    -1.312782727    -1.197177830
  22    N        3.144395984    -1.284536424    -0.554942788
  23    C        3.157616474    -0.146592319     0.259681207
  24    H        0.388622096     0.108098373    -0.589488799
  25    H       -0.895781188    -2.479591077     1.549895205
  26    H       -3.253568923    -3.267737281     1.472988317
  27    H       -4.974769875    -1.993585124     0.200308903
  28    H       -1.963412195     0.877878821    -0.937319973
  29    H       -3.494160861     1.713302852    -2.399551921
  30    H        1.775048542     1.977759668     2.501637561
  31    H        3.898043253     3.159331707     2.141167925
  32    H        5.623958978     2.272428141     0.578228155
  33    H        6.033563333    -0.001460280    -1.196455817
  34    H        4.622264921    -2.068100294    -1.906477406


           Empirical Formula: C15 H11 N7 O  =    34 atoms



      MOLECULAR POINT GROUP   :   C1  


                  EIGENVALUES  
 -43.34360 -39.39505 -37.29104 -35.91377 -34.41790 -32.71583 -31.14936 -30.83350
 -30.63423 -27.32868 -26.91643 -26.17278 -25.94539 -24.86289 -23.54306 -23.17539
 -22.57209 -21.80889 -21.68002 -21.37735 -20.42615 -19.44861 -19.07428 -18.22591
 -17.63863 -17.14631 -17.03906 -16.80095 -16.64470 -16.16798 -16.01405 -15.71422
 -15.64343 -15.03330 -14.99190 -14.76960 -14.30051 -14.08424 -13.89005 -13.38903
 -13.30233 -13.21546 -13.04467 -12.66899 -12.58541 -12.14088 -11.94501 -11.88886
 -11.80888 -11.63811 -11.14927 -10.68601 -10.12325  -9.89537  -9.86262  -9.29015
  -1.09511  -1.06623  -0.42903  -0.31454   0.13147   0.64903   0.72336   0.77265
   1.05021   1.19348   1.50985   1.84439   2.07400   2.23946   2.49413   2.73658
   3.10030   3.17242   3.31798   3.35048   3.62614   3.82265   3.85673   3.99506
   4.08252   4.23789   4.31843   4.41414   4.42256   4.47708   4.54408   4.64567
   4.90276   5.03934   5.11571   5.17332   5.23928   5.24446   5.46251   5.48782
   5.56839   5.61751   5.70982   5.82410   5.92257   6.03467   6.15540


              NET ATOMIC CHARGES AND DIPOLE CONTRIBUTIONS

  ATOM NO.   TYPE          CHARGE      No. of ELECS.   s-Pop       p-Pop       
    1          O          -0.469311        6.4693     1.87947     4.58984
    2          C           0.606011        3.3940     1.07250     2.32149
    3          N          -0.574206        5.5742     1.55443     4.01977
    4          C           0.233408        3.7666     1.05149     2.71510
    5          C          -0.156090        4.1561     1.08982     3.06627
    6          C          -0.113569        4.1136     1.08514     3.02843
    7          C          -0.132329        4.1323     1.08759     3.04474
    8          C          -0.015719        4.0157     1.04589     2.96983
    9          C          -0.237436        4.2374     1.07669     3.16075
   10          C           0.175898        3.8241     1.09949     2.72461
   11          N          -0.252789        5.2528     1.79347     3.45932
   12          N          -0.015265        5.0153     1.78926     3.22601
   13          N          -0.078308        5.0783     1.80815     3.27016
   14          N          -0.295616        5.2956     1.55473     3.74089
   15          C          -0.111969        4.1120     1.06992     3.04205
   16          C          -0.118408        4.1184     1.08454     3.03387
   17          C          -0.132632        4.1326     1.08323     3.04941
   18          C          -0.164064        4.1641     1.07560     3.08846
   19          C           0.046593        3.9534     1.05789     2.89552
   20          N          -0.420496        5.4205     1.52926     3.89123
   21          C           0.166070        3.8339     1.10883     2.72510
   22          N          -0.392861        5.3929     1.76548     3.62738
   23          C           0.075204        3.9248     1.05766     2.86714
   24          H           0.324424        0.6756     0.67558
   25          H           0.189305        0.8107     0.81069
   26          H           0.162009        0.8380     0.83799
   27          H           0.182887        0.8171     0.81711
   28          H           0.153820        0.8462     0.84618
   29          H           0.342442        0.6576     0.65756
   30          H           0.174776        0.8252     0.82522
   31          H           0.164324        0.8357     0.83568
   32          H           0.163850        0.8361     0.83615
   33          H           0.324482        0.6755     0.67552
   34          H           0.195563        0.8044     0.80444
 DIPOLE           X         Y         Z       TOTAL
 POINT-CHG.     9.079     1.014    -2.160     9.387
 HYBRID         2.761     0.756    -0.904     3.002
 SUM           11.840     1.769    -3.063    12.357


          ATOMIC ORBITAL ELECTRON POPULATIONS

     Atom    s        px        py        pz   
    1  O   1.87947   1.76347   1.48339   1.34298
    2  C   1.07250   0.80686   0.74661   0.76802
    3  N   1.55443   1.17673   1.61991   1.22314
    4  C   1.05149   0.81444   0.93561   0.96504
    5  C   1.08982   1.04206   0.99537   1.02883
    6  C   1.08514   0.98176   1.05106   0.99561
    7  C   1.08759   1.08798   0.98076   0.97600
    8  C   1.04589   0.94886   0.99962   1.02136
    9  C   1.07669   0.98886   1.07626   1.09564
   10  C   1.09949   0.91947   0.88703   0.91810
   11  N   1.79347   1.08741   1.17500   1.19691
   12  N   1.78926   1.20540   0.99072   1.02989
   13  N   1.80815   0.87136   1.19818   1.20061
   14  N   1.55473   1.12973   1.26552   1.34565
   15  C   1.06992   1.00576   1.01449   1.02179
   16  C   1.08454   1.02990   0.98552   1.01845
   17  C   1.08323   0.97783   1.06183   1.00975
   18  C   1.07560   1.07568   0.99783   1.01495
   19  C   1.05789   0.95731   0.97917   0.95904
   20  N   1.52926   1.23518   1.26356   1.39250
   21  C   1.10883   0.83848   0.90005   0.98658
   22  N   1.76548   1.23611   1.23318   1.15809
   23  C   1.05766   0.96655   0.91602   0.98457
   24  H   0.67558
   25  H   0.81069
   26  H   0.83799
   27  H   0.81711
   28  H   0.84618
   29  H   0.65756
   30  H   0.82522
   31  H   0.83568
   32  H   0.83615
   33  H   0.67552
   34  H   0.80444

 **********************
 *                    *
 * JOB ENDED NORMALLY *
 *                    *
 **********************



 TOTAL JOB TIME:             3.76 SECONDS

 == MOPAC DONE ==
