 *******************************************************************************
 **                                                                           **
 **                              MOPAC v23.0.3                                **
 **                                                                           **
 *******************************************************************************
 **          Digital Object Identifier (DOI): 10.5281/zenodo.6511958          **
 **    Visit the DOI location for information on how to cite this program.    **
 *******************************************************************************

                              PM7 CALCULATION RESULTS

 *******************************************************************************
 *  CALCULATION DONE:                                Fri Jul 25 16:59:00 2025  *
 *  PM7        - The PM7 Hamiltonian to be used
 *  XYZ        - CARTESIAN COORDINATE SYSTEM TO BE USED
 *  T=         - A TIME OF 172800.0 SECONDS REQUESTED
 *  DUMP=N     - RESTART FILE WRITTEN EVERY 7200.0 SECONDS REQUESTED
 *******************************************************************************
PM7 XYZ

 Lipophilicity_1382 - geometry optimisation
   ATOM   CHEMICAL          X               Y               Z
  NUMBER   SYMBOL      (ANGSTROMS)     (ANGSTROMS)     (ANGSTROMS)

     1       C         -6.34751400  *   0.94627000  *  -0.69856100  *
     2       C         -6.14699500  *   0.03275100  *  -1.90632700  *
     3       C         -5.42963200  *  -1.26984300  *  -1.53668300  *
     4       N         -4.04904600  *  -1.00723900  *  -1.13016300  *
     5       C         -3.63744400  *  -0.95769500  *   0.24513900  *
     6       O         -4.46189800  *  -1.23402700  *   1.15864100  *
     7       C         -2.23450400  *  -0.63170000  *   0.58486800  *
     8       N         -1.26622600  *  -1.00486000  *  -0.29130100  *
     9       N          0.02722600  *  -0.81467000  *  -0.04417300  *
    10       C          0.46119500  *  -0.23497300  *   1.10399600  *
    11       C          1.84268200  *  -0.04406300  *   1.32467400  *
    12       C          2.26697100  *   0.60666700  *   2.49225200  *
    13       C          1.33725600  *   1.06608700  *   3.42305600  *
    14       C         -0.02857100  *   0.87540700  *   3.21056700  *
    15       C         -0.48747500  *   0.20872600  *   2.05572800  *
    16       C         -1.86351200  *   0.00307200  *   1.79291600  *
    17       N         -2.86912200  *   0.47235500  *   2.70554200  *
    18       C          2.85390800  *  -0.52379700  *   0.35128000  *
    19       C          2.89160500  *  -1.87186100  *  -0.02922900  *
    20       N          3.83027200  *  -2.30796800  *  -0.90750800  *
    21       C          4.74662000  *  -1.45670600  *  -1.43443600  *
    22       O          5.69692800  *  -1.94356300  *  -2.33542500  *
    23       C          6.68849600  *  -1.11421100  *  -2.92970900  *
    24       N          4.72951700  *  -0.14336800  *  -1.08060200  *
    25       C          3.80916500  *   0.34380000  *  -0.20419100  *
    26       O          3.80333900  *   1.70252700  *   0.13162300  *
    27       C          4.74287000  *   2.63106700  *  -0.39603100  *
    28       H         -5.36871000  *   1.29115100  *  -0.30389800  *
    29       H         -6.93510100  *   1.83793100  *  -1.00263000  *
    30       H         -6.90152800  *   0.41294900  *   0.10300400  *
    31       H         -7.14277600  *  -0.21688000  *  -2.33228200  *
    32       H         -5.56684500  *   0.57245000  *  -2.68606300  *
    33       H         -5.41577900  *  -1.93315800  *  -2.42792900  *
    34       H         -5.98921000  *  -1.80621900  *  -0.73996200  *
    35       H         -3.36944300  *  -0.72962600  *  -1.87397100  *
    36       H          3.32256300  *   0.75507100  *   2.68520800  *
    37       H          1.67749600  *   1.57534800  *   4.31567600  *
    38       H         -0.70730700  *   1.26924400  *   3.95211800  *
    39       H         -3.79381700  *   0.81046700  *   2.35931600  *
    40       H         -2.71825400  *   0.47271800  *   3.73728600  *
    41       H          2.18296400  *  -2.57941300  *   0.38205500  *
    42       H          7.32064000  *  -1.72760400  *  -3.60394900  *
    43       H          6.20532100  *  -0.30913300  *  -3.52301500  *
    44       H          7.33131200  *  -0.66614800  *  -2.14253500  *
    45       H          4.65546800  *   2.67328800  *  -1.50240000  *
    46       H          5.77386400  *   2.33171000  *  -0.11158100  *
    47       H          4.53303200  *   3.63766700  *   0.02001200  *



          CARTESIAN COORDINATES 

    NO.       ATOM           X           Y           Z

     1         C         -6.3475      0.9463     -0.6986
     2         C         -6.1470      0.0328     -1.9063
     3         C         -5.4296     -1.2698     -1.5367
     4         N         -4.0490     -1.0072     -1.1302
     5         C         -3.6374     -0.9577      0.2451
     6         O         -4.4619     -1.2340      1.1586
     7         C         -2.2345     -0.6317      0.5849
     8         N         -1.2662     -1.0049     -0.2913
     9         N          0.0272     -0.8147     -0.0442
    10         C          0.4612     -0.2350      1.1040
    11         C          1.8427     -0.0441      1.3247
    12         C          2.2670      0.6067      2.4923
    13         C          1.3373      1.0661      3.4231
    14         C         -0.0286      0.8754      3.2106
    15         C         -0.4875      0.2087      2.0557
    16         C         -1.8635      0.0031      1.7929
    17         N         -2.8691      0.4724      2.7055
    18         C          2.8539     -0.5238      0.3513
    19         C          2.8916     -1.8719     -0.0292
    20         N          3.8303     -2.3080     -0.9075
    21         C          4.7466     -1.4567     -1.4344
    22         O          5.6969     -1.9436     -2.3354
    23         C          6.6885     -1.1142     -2.9297
    24         N          4.7295     -0.1434     -1.0806
    25         C          3.8092      0.3438     -0.2042
    26         O          3.8033      1.7025      0.1316
    27         C          4.7429      2.6311     -0.3960
    28         H         -5.3687      1.2912     -0.3039
    29         H         -6.9351      1.8379     -1.0026
    30         H         -6.9015      0.4129      0.1030
    31         H         -7.1428     -0.2169     -2.3323
    32         H         -5.5668      0.5725     -2.6861
    33         H         -5.4158     -1.9332     -2.4279
    34         H         -5.9892     -1.8062     -0.7400
    35         H         -3.3694     -0.7296     -1.8740
    36         H          3.3226      0.7551      2.6852
    37         H          1.6775      1.5753      4.3157
    38         H         -0.7073      1.2692      3.9521
    39         H         -3.7938      0.8105      2.3593
    40         H         -2.7183      0.4727      3.7373
    41         H          2.1830     -2.5794      0.3821
    42         H          7.3206     -1.7276     -3.6039
    43         H          6.2053     -0.3091     -3.5230
    44         H          7.3313     -0.6661     -2.1425
    45         H          4.6555      2.6733     -1.5024
    46         H          5.7739      2.3317     -0.1116
    47         H          4.5330      3.6377      0.0200

 General Reference for PM7:
 "Optimization of Parameters for Semiempirical Methods VI: More Modifications to the 
 NDDO Approximations and Re-optimization of Parameters", J. J. P. Stewart, J. Mol. Mod., 1:32, 19 (2013)
 https://link.springer.com/article/10.1007/s00894-012-1667-x

           Empirical Formula: C18 H20 N6 O3  =    47 atoms



      MOLECULAR POINT GROUP   :   C1  


      RHF CALCULATION, NO. OF DOUBLY OCCUPIED LEVELS = 70


          Geometry optimization using L-BFGS
 CYCLE:     1 TIME:   0.059 TIME LEFT:  2.00D  GRAD.:   266.712 HEAT:  6.980321
 CYCLE:     2 TIME:   0.035 TIME LEFT:  2.00D  GRAD.:   261.440 HEAT:  6.275985
 CYCLE:     3 TIME:   0.039 TIME LEFT:  2.00D  GRAD.:   102.328 HEAT: -13.33375
 CYCLE:     4 TIME:   0.043 TIME LEFT:  2.00D  GRAD.:   261.454 HEAT:  6.275754
 CYCLE:     5 TIME:   0.043 TIME LEFT:  2.00D  GRAD.:   102.438 HEAT: -13.33219
 CYCLE:     6 TIME:   0.035 TIME LEFT:  2.00D  GRAD.:    64.209 HEAT: -15.80763
 CYCLE:     7 TIME:   0.035 TIME LEFT:  2.00D  GRAD.:    60.127 HEAT: -18.74061
 CYCLE:     8 TIME:   0.031 TIME LEFT:  2.00D  GRAD.:    60.276 HEAT: -21.92543
 CYCLE:     9 TIME:   0.039 TIME LEFT:  2.00D  GRAD.:   114.334 HEAT: -23.40845
 CYCLE:    10 TIME:   0.031 TIME LEFT:  2.00D  GRAD.:    36.768 HEAT: -25.82975
 CYCLE:    11 TIME:   0.031 TIME LEFT:  2.00D  GRAD.:    28.431 HEAT: -26.52519
 CYCLE:    12 TIME:   0.035 TIME LEFT:  2.00D  GRAD.:    28.086 HEAT: -27.23262
 CYCLE:    13 TIME:   0.035 TIME LEFT:  2.00D  GRAD.:    32.078 HEAT: -28.06015
 CYCLE:    14 TIME:   0.031 TIME LEFT:  2.00D  GRAD.:    50.671 HEAT: -28.46282
 CYCLE:    15 TIME:   0.035 TIME LEFT:  2.00D  GRAD.:    21.201 HEAT: -29.15518
 CYCLE:    16 TIME:   0.031 TIME LEFT:  2.00D  GRAD.:    20.304 HEAT: -29.54534
 CYCLE:    17 TIME:   0.031 TIME LEFT:  2.00D  GRAD.:    25.884 HEAT: -30.13980
 CYCLE:    18 TIME:   0.039 TIME LEFT:  2.00D  GRAD.:    47.247 HEAT: -30.67399
 CYCLE:    19 TIME:   0.031 TIME LEFT:  2.00D  GRAD.:    21.186 HEAT: -31.18507
 CYCLE:    20 TIME:   0.031 TIME LEFT:  2.00D  GRAD.:    13.715 HEAT: -31.38839
 CYCLE:    21 TIME:   0.035 TIME LEFT:  2.00D  GRAD.:    15.441 HEAT: -31.62877
 CYCLE:    22 TIME:   0.035 TIME LEFT:  2.00D  GRAD.:    23.894 HEAT: -31.84604
 CYCLE:    23 TIME:   0.035 TIME LEFT:  2.00D  GRAD.:    17.676 HEAT: -32.10510
 CYCLE:    24 TIME:   0.035 TIME LEFT:  2.00D  GRAD.:    17.162 HEAT: -32.33783
 CYCLE:    25 TIME:   0.035 TIME LEFT:  2.00D  GRAD.:    14.658 HEAT: -32.47557
 CYCLE:    26 TIME:   0.031 TIME LEFT:  2.00D  GRAD.:    12.693 HEAT: -32.57869
 CYCLE:    27 TIME:   0.035 TIME LEFT:  2.00D  GRAD.:    20.869 HEAT: -32.79955
 CYCLE:    28 TIME:   0.031 TIME LEFT:  2.00D  GRAD.:    20.584 HEAT: -32.87637
 CYCLE:    29 TIME:   0.031 TIME LEFT:  2.00D  GRAD.:     6.897 HEAT: -32.94634
 CYCLE:    30 TIME:   0.031 TIME LEFT:  2.00D  GRAD.:     5.445 HEAT: -32.96817
 CYCLE:    31 TIME:   0.035 TIME LEFT:  2.00D  GRAD.:     8.660 HEAT: -33.00129
 CYCLE:    32 TIME:   0.031 TIME LEFT:  2.00D  GRAD.:     6.544 HEAT: -33.03369
 CYCLE:    33 TIME:   0.031 TIME LEFT:  2.00D  GRAD.:     5.315 HEAT: -33.07471
 CYCLE:    34 TIME:   0.031 TIME LEFT:  2.00D  GRAD.:     7.164 HEAT: -33.11578
 CYCLE:    35 TIME:   0.031 TIME LEFT:  2.00D  GRAD.:     7.618 HEAT: -33.15245
 CYCLE:    36 TIME:   0.035 TIME LEFT:  2.00D  GRAD.:     6.554 HEAT: -33.18434
 CYCLE:    37 TIME:   0.031 TIME LEFT:  2.00D  GRAD.:     5.186 HEAT: -33.21278
 CYCLE:    38 TIME:   0.031 TIME LEFT:  2.00D  GRAD.:     6.056 HEAT: -33.24468
 CYCLE:    39 TIME:   0.031 TIME LEFT:  2.00D  GRAD.:    11.859 HEAT: -33.28738
 CYCLE:    40 TIME:   0.035 TIME LEFT:  2.00D  GRAD.:     7.700 HEAT: -33.34002
 CYCLE:    41 TIME:   0.031 TIME LEFT:  2.00D  GRAD.:     6.128 HEAT: -33.38285
 CYCLE:    42 TIME:   0.031 TIME LEFT:  2.00D  GRAD.:     8.179 HEAT: -33.41723
 CYCLE:    43 TIME:   0.031 TIME LEFT:  2.00D  GRAD.:     7.194 HEAT: -33.45491
 CYCLE:    44 TIME:   0.035 TIME LEFT:  2.00D  GRAD.:     8.242 HEAT: -33.50769
 CYCLE:    45 TIME:   0.035 TIME LEFT:  2.00D  GRAD.:    11.505 HEAT: -33.56674
 CYCLE:    46 TIME:   0.031 TIME LEFT:  2.00D  GRAD.:     7.432 HEAT: -33.62117
 CYCLE:    47 TIME:   0.031 TIME LEFT:  2.00D  GRAD.:     6.185 HEAT: -33.66693
 CYCLE:    48 TIME:   0.031 TIME LEFT:  2.00D  GRAD.:     9.419 HEAT: -33.70797
 CYCLE:    49 TIME:   0.035 TIME LEFT:  2.00D  GRAD.:     6.774 HEAT: -33.74656
 CYCLE:    50 TIME:   0.031 TIME LEFT:  2.00D  GRAD.:     4.989 HEAT: -33.77418
 CYCLE:    51 TIME:   0.031 TIME LEFT:  2.00D  GRAD.:     5.665 HEAT: -33.80078
 CYCLE:    52 TIME:   0.031 TIME LEFT:  2.00D  GRAD.:     7.027 HEAT: -33.81849
 CYCLE:    53 TIME:   0.035 TIME LEFT:  2.00D  GRAD.:     4.964 HEAT: -33.83914
 CYCLE:    54 TIME:   0.027 TIME LEFT:  2.00D  GRAD.:     4.432 HEAT: -33.86353
 CYCLE:    55 TIME:   0.035 TIME LEFT:  2.00D  GRAD.:     5.244 HEAT: -33.87478
 CYCLE:    56 TIME:   0.031 TIME LEFT:  2.00D  GRAD.:     3.576 HEAT: -33.88500
 CYCLE:    57 TIME:   0.031 TIME LEFT:  2.00D  GRAD.:     3.937 HEAT: -33.89841
 CYCLE:    58 TIME:   0.031 TIME LEFT:  2.00D  GRAD.:     5.486 HEAT: -33.90732
 CYCLE:    59 TIME:   0.031 TIME LEFT:  2.00D  GRAD.:     3.644 HEAT: -33.91794
 CYCLE:    60 TIME:   0.035 TIME LEFT:  2.00D  GRAD.:     3.072 HEAT: -33.93270
 CYCLE:    61 TIME:   0.031 TIME LEFT:  2.00D  GRAD.:     4.576 HEAT: -33.94348
 CYCLE:    62 TIME:   0.035 TIME LEFT:  2.00D  GRAD.:     3.922 HEAT: -33.95719
 CYCLE:    63 TIME:   0.031 TIME LEFT:  2.00D  GRAD.:     6.170 HEAT: -33.96562
 CYCLE:    64 TIME:   0.031 TIME LEFT:  2.00D  GRAD.:     3.135 HEAT: -33.97990
 CYCLE:    65 TIME:   0.035 TIME LEFT:  2.00D  GRAD.:     3.421 HEAT: -33.98971
 CYCLE:    66 TIME:   0.031 TIME LEFT:  2.00D  GRAD.:     6.655 HEAT: -34.00879
 CYCLE:    67 TIME:   0.035 TIME LEFT:  2.00D  GRAD.:     6.082 HEAT: -34.02392
 CYCLE:    68 TIME:   0.031 TIME LEFT:  2.00D  GRAD.:     4.044 HEAT: -34.03835
 CYCLE:    69 TIME:   0.035 TIME LEFT:  2.00D  GRAD.:     4.092 HEAT: -34.05769
 CYCLE:    70 TIME:   0.031 TIME LEFT:  2.00D  GRAD.:     7.536 HEAT: -34.07721
 CYCLE:    71 TIME:   0.031 TIME LEFT:  2.00D  GRAD.:     5.399 HEAT: -34.10268
 CYCLE:    72 TIME:   0.035 TIME LEFT:  2.00D  GRAD.:     5.816 HEAT: -34.13005
 CYCLE:    73 TIME:   0.031 TIME LEFT:  2.00D  GRAD.:     8.655 HEAT: -34.14350
 CYCLE:    74 TIME:   0.031 TIME LEFT:  2.00D  GRAD.:     4.449 HEAT: -34.16110
 CYCLE:    75 TIME:   0.031 TIME LEFT:  2.00D  GRAD.:     3.695 HEAT: -34.17602
 CYCLE:    76 TIME:   0.031 TIME LEFT:  2.00D  GRAD.:     4.168 HEAT: -34.19273
 CYCLE:    77 TIME:   0.035 TIME LEFT:  2.00D  GRAD.:     5.669 HEAT: -34.21491
 CYCLE:    78 TIME:   0.035 TIME LEFT:  2.00D  GRAD.:     7.765 HEAT: -34.22557
 CYCLE:    79 TIME:   0.031 TIME LEFT:  2.00D  GRAD.:     6.201 HEAT: -34.24045
 CYCLE:    80 TIME:   0.031 TIME LEFT:  2.00D  GRAD.:     3.064 HEAT: -34.25180
 CYCLE:    81 TIME:   0.035 TIME LEFT:  2.00D  GRAD.:     3.072 HEAT: -34.25892
 CYCLE:    82 TIME:   0.031 TIME LEFT:  2.00D  GRAD.:     3.125 HEAT: -34.26646
 CYCLE:    83 TIME:   0.031 TIME LEFT:  2.00D  GRAD.:     8.475 HEAT: -34.27546
 CYCLE:    84 TIME:   0.031 TIME LEFT:  2.00D  GRAD.:     2.973 HEAT: -34.28908
 CYCLE:    85 TIME:   0.035 TIME LEFT:  2.00D  GRAD.:     2.211 HEAT: -34.29367
 CYCLE:    86 TIME:   0.035 TIME LEFT:  2.00D  GRAD.:     3.794 HEAT: -34.29052
 CYCLE:    87 TIME:   0.031 TIME LEFT:  2.00D  GRAD.:     3.158 HEAT: -34.30652
 CYCLE:    88 TIME:   0.035 TIME LEFT:  2.00D  GRAD.:     4.697 HEAT: -34.30841
 CYCLE:    89 TIME:   0.031 TIME LEFT:  2.00D  GRAD.:     2.136 HEAT: -34.31697
 CYCLE:    90 TIME:   0.035 TIME LEFT:  2.00D  GRAD.:     2.816 HEAT: -34.32357
 CYCLE:    91 TIME:   0.031 TIME LEFT:  2.00D  GRAD.:     3.159 HEAT: -34.33409
 CYCLE:    92 TIME:   0.035 TIME LEFT:  2.00D  GRAD.:     5.671 HEAT: -34.34977
 CYCLE:    93 TIME:   0.035 TIME LEFT:  2.00D  GRAD.:    15.636 HEAT: -34.33142
 CYCLE:    94 TIME:   0.031 TIME LEFT:  2.00D  GRAD.:     3.188 HEAT: -34.36784
 CYCLE:    95 TIME:   0.031 TIME LEFT:  2.00D  GRAD.:     2.121 HEAT: -34.37133
 CYCLE:    96 TIME:   0.031 TIME LEFT:  2.00D  GRAD.:     3.214 HEAT: -34.38376
 CYCLE:    97 TIME:   0.035 TIME LEFT:  2.00D  GRAD.:     4.443 HEAT: -34.40118
 CYCLE:    98 TIME:   0.035 TIME LEFT:  2.00D  GRAD.:    10.459 HEAT: -34.40082
 CYCLE:    99 TIME:   0.031 TIME LEFT:  2.00D  GRAD.:     3.451 HEAT: -34.42527
 CYCLE:   100 TIME:   0.031 TIME LEFT:  2.00D  GRAD.:     3.284 HEAT: -34.43625
 CYCLE:   101 TIME:   0.031 TIME LEFT:  2.00D  GRAD.:     3.238 HEAT: -34.44944
 CYCLE:   102 TIME:   0.039 TIME LEFT:  2.00D  GRAD.:     6.427 HEAT: -34.46438
 CYCLE:   103 TIME:   0.031 TIME LEFT:  2.00D  GRAD.:     7.024 HEAT: -34.48470
 CYCLE:   104 TIME:   0.039 TIME LEFT:  2.00D  GRAD.:     6.363 HEAT: -34.51397
 CYCLE:   105 TIME:   0.047 TIME LEFT:  2.00D  GRAD.:     6.870 HEAT: -34.54221
 CYCLE:   106 TIME:   0.039 TIME LEFT:  2.00D  GRAD.:     8.296 HEAT: -34.58552
 CYCLE:   107 TIME:   0.035 TIME LEFT:  2.00D  GRAD.:     8.201 HEAT: -34.61406
 CYCLE:   108 TIME:   0.035 TIME LEFT:  2.00D  GRAD.:    23.372 HEAT: -34.55346
 CYCLE:   109 TIME:   0.035 TIME LEFT:  2.00D  GRAD.:     9.730 HEAT: -34.64253
 CYCLE:   110 TIME:   0.035 TIME LEFT:  2.00D  GRAD.:    22.498 HEAT: -34.54968
 CYCLE:   111 TIME:   0.039 TIME LEFT:  2.00D  GRAD.:    13.739 HEAT: -34.63973
 CYCLE:   112 TIME:   0.035 TIME LEFT:  2.00D  GRAD.:    43.654 HEAT: -34.13833
 CYCLE:   113 TIME:   0.039 TIME LEFT:  2.00D  GRAD.:    41.275 HEAT: -34.23330
 CYCLE:   114 TIME:   0.035 TIME LEFT:  2.00D  GRAD.:    28.117 HEAT: -34.41696
 CYCLE:   115 TIME:   0.035 TIME LEFT:  2.00D  GRAD.:    37.985 HEAT: -34.35369
 CYCLE:   116 TIME:   0.035 TIME LEFT:  2.00D  GRAD.:    58.794 HEAT: -34.11526
 CYCLE:   117 TIME:   0.035 TIME LEFT:  2.00D  GRAD.:    18.264 HEAT: -34.65686
 CYCLE:   118 TIME:   0.039 TIME LEFT:  2.00D  GRAD.:     9.350 HEAT: -34.72704
 CYCLE:   119 TIME:   0.031 TIME LEFT:  2.00D  GRAD.:     8.041 HEAT: -34.73937
 CYCLE:   120 TIME:   0.031 TIME LEFT:  2.00D  GRAD.:     5.959 HEAT: -34.74124
 CYCLE:   121 TIME:   0.039 TIME LEFT:  2.00D  GRAD.:     3.413 HEAT: -34.75931
 CYCLE:   122 TIME:   0.035 TIME LEFT:  2.00D  GRAD.:     3.800 HEAT: -34.76131
 CYCLE:   123 TIME:   0.027 TIME LEFT:  2.00D  GRAD.:     4.088 HEAT: -34.77316
 CYCLE:   124 TIME:   0.035 TIME LEFT:  2.00D  GRAD.:     3.867 HEAT: -34.78694
 CYCLE:   125 TIME:   0.031 TIME LEFT:  2.00D  GRAD.:     5.430 HEAT: -34.80521
 CYCLE:   126 TIME:   0.035 TIME LEFT:  2.00D  GRAD.:    11.094 HEAT: -34.82450
 CYCLE:   127 TIME:   0.031 TIME LEFT:  2.00D  GRAD.:     4.468 HEAT: -34.85386
 CYCLE:   128 TIME:   0.031 TIME LEFT:  2.00D  GRAD.:     2.856 HEAT: -34.86039
 CYCLE:   129 TIME:   0.031 TIME LEFT:  2.00D  GRAD.:     2.658 HEAT: -34.86959
 CYCLE:   130 TIME:   0.039 TIME LEFT:  2.00D  GRAD.:     7.098 HEAT: -34.87586
 CYCLE:   131 TIME:   0.031 TIME LEFT:  2.00D  GRAD.:     4.328 HEAT: -34.89690
 CYCLE:   132 TIME:   0.031 TIME LEFT:  2.00D  GRAD.:     2.053 HEAT: -34.90969
 CYCLE:   133 TIME:   0.035 TIME LEFT:  2.00D  GRAD.:     2.528 HEAT: -34.91816
 CYCLE:   134 TIME:   0.035 TIME LEFT:  2.00D  GRAD.:     9.451 HEAT: -34.91495
 CYCLE:   135 TIME:   0.031 TIME LEFT:  2.00D  GRAD.:     3.122 HEAT: -34.93672
 CYCLE:   136 TIME:   0.031 TIME LEFT:  2.00D  GRAD.:     2.071 HEAT: -34.94220
 CYCLE:   137 TIME:   0.035 TIME LEFT:  2.00D  GRAD.:     2.125 HEAT: -34.95483
 CYCLE:   138 TIME:   0.035 TIME LEFT:  2.00D  GRAD.:    10.065 HEAT: -34.95815
 CYCLE:   139 TIME:   0.031 TIME LEFT:  2.00D  GRAD.:     3.670 HEAT: -34.97797
 CYCLE:   140 TIME:   0.031 TIME LEFT:  2.00D  GRAD.:     2.553 HEAT: -34.98450
 CYCLE:   141 TIME:   0.039 TIME LEFT:  2.00D  GRAD.:     3.786 HEAT: -34.99024
 CYCLE:   142 TIME:   0.035 TIME LEFT:  2.00D  GRAD.:    10.670 HEAT: -34.98554
 CYCLE:   143 TIME:   0.031 TIME LEFT:  2.00D  GRAD.:     2.638 HEAT: -35.00915
 CYCLE:   144 TIME:   0.031 TIME LEFT:  2.00D  GRAD.:     1.648 HEAT: -35.01350
 CYCLE:   145 TIME:   0.039 TIME LEFT:  2.00D  GRAD.:     4.396 HEAT: -35.00992
 CYCLE:   146 TIME:   0.031 TIME LEFT:  2.00D  GRAD.:     2.458 HEAT: -35.02415
 CYCLE:   147 TIME:   0.035 TIME LEFT:  2.00D  GRAD.:     6.567 HEAT: -35.02053
 CYCLE:   148 TIME:   0.027 TIME LEFT:  2.00D  GRAD.:     1.843 HEAT: -35.02948
 CYCLE:   149 TIME:   0.039 TIME LEFT:  2.00D  GRAD.:     1.902 HEAT: -35.03377
 CYCLE:   150 TIME:   0.035 TIME LEFT:  2.00D  GRAD.:     1.897 HEAT: -35.03968
 CYCLE:   151 TIME:   0.039 TIME LEFT:  2.00D  GRAD.:     4.615 HEAT: -35.04879
 CYCLE:   152 TIME:   0.031 TIME LEFT:  2.00D  GRAD.:    20.335 HEAT: -34.99576
 CYCLE:   153 TIME:   0.035 TIME LEFT:  2.00D  GRAD.:     2.168 HEAT: -35.05917
 CYCLE:   154 TIME:   0.031 TIME LEFT:  2.00D  GRAD.:     1.920 HEAT: -35.06246
 CYCLE:   155 TIME:   0.035 TIME LEFT:  2.00D  GRAD.:     3.492 HEAT: -35.05193
 CYCLE:   156 TIME:   0.043 TIME LEFT:  2.00D  GRAD.:     7.139 HEAT: -35.05992
 CYCLE:   157 TIME:   0.031 TIME LEFT:  2.00D  GRAD.:    14.350 HEAT: -35.03302
 CYCLE:   158 TIME:   0.035 TIME LEFT:  2.00D  GRAD.:     1.648 HEAT: -35.07688
 CYCLE:   159 TIME:   0.031 TIME LEFT:  2.00D  GRAD.:     1.479 HEAT: -35.07918
 CYCLE:   160 TIME:   0.035 TIME LEFT:  2.00D  GRAD.:     2.781 HEAT: -35.07489
 CYCLE:   161 TIME:   0.035 TIME LEFT:  2.00D  GRAD.:     5.247 HEAT: -35.08503
 CYCLE:   162 TIME:   0.031 TIME LEFT:  2.00D  GRAD.:     3.781 HEAT: -35.08930
 CYCLE:   163 TIME:   0.035 TIME LEFT:  2.00D  GRAD.:     1.827 HEAT: -35.09498
 CYCLE:   164 TIME:   0.031 TIME LEFT:  2.00D  GRAD.:     2.173 HEAT: -35.09855
 CYCLE:   165 TIME:   0.031 TIME LEFT:  2.00D  GRAD.:     1.697 HEAT: -35.10252
 CYCLE:   166 TIME:   0.039 TIME LEFT:  2.00D  GRAD.:     6.313 HEAT: -35.09701
 CYCLE:   167 TIME:   0.031 TIME LEFT:  2.00D  GRAD.:     2.569 HEAT: -35.11067
 CYCLE:   168 TIME:   0.035 TIME LEFT:  2.00D  GRAD.:     1.734 HEAT: -35.11169
 CYCLE:   169 TIME:   0.035 TIME LEFT:  2.00D  GRAD.:     1.384 HEAT: -35.11421
 CYCLE:   170 TIME:   0.035 TIME LEFT:  2.00D  GRAD.:     4.492 HEAT: -35.11236
 CYCLE:   171 TIME:   0.035 TIME LEFT:  2.00D  GRAD.:     1.968 HEAT: -35.12069
 CYCLE:   172 TIME:   0.031 TIME LEFT:  2.00D  GRAD.:     2.278 HEAT: -35.12096
 CYCLE:   173 TIME:   0.035 TIME LEFT:  2.00D  GRAD.:     1.216 HEAT: -35.12316
 CYCLE:   174 TIME:   0.035 TIME LEFT:  2.00D  GRAD.:     3.201 HEAT: -35.12445
 CYCLE:   175 TIME:   0.031 TIME LEFT:  2.00D  GRAD.:     1.801 HEAT: -35.12720
 CYCLE:   176 TIME:   0.043 TIME LEFT:  2.00D  GRAD.:     1.976 HEAT: -35.13070
 CYCLE:   177 TIME:   0.035 TIME LEFT:  2.00D  GRAD.:     2.158 HEAT: -35.13394
 CYCLE:   178 TIME:   0.035 TIME LEFT:  2.00D  GRAD.:     3.237 HEAT: -35.14064
 CYCLE:   179 TIME:   0.039 TIME LEFT:  2.00D  GRAD.:    21.299 HEAT: -35.07936
 CYCLE:   180 TIME:   0.035 TIME LEFT:  2.00D  GRAD.:     3.530 HEAT: -35.14461
 CYCLE:   181 TIME:   0.031 TIME LEFT:  2.00D  GRAD.:     2.239 HEAT: -35.14936
 CYCLE:   182 TIME:   0.035 TIME LEFT:  2.00D  GRAD.:     6.275 HEAT: -35.15151
 CYCLE:   183 TIME:   0.031 TIME LEFT:  2.00D  GRAD.:     2.979 HEAT: -35.15935
 CYCLE:   184 TIME:   0.031 TIME LEFT:  2.00D  GRAD.:     1.525 HEAT: -35.16366
 CYCLE:   185 TIME:   0.035 TIME LEFT:  2.00D  GRAD.:     2.243 HEAT: -35.16824
 CYCLE:   186 TIME:   0.035 TIME LEFT:  2.00D  GRAD.:     7.021 HEAT: -35.16985
 CYCLE:   187 TIME:   0.035 TIME LEFT:  2.00D  GRAD.:     5.404 HEAT: -35.16753
 CYCLE:   188 TIME:   0.035 TIME LEFT:  2.00D  GRAD.:     7.053 HEAT: -35.18135
 CYCLE:   189 TIME:   0.031 TIME LEFT:  2.00D  GRAD.:     4.517 HEAT: -35.19026
 CYCLE:   190 TIME:   0.035 TIME LEFT:  2.00D  GRAD.:     2.839 HEAT: -35.19743
 CYCLE:   191 TIME:   0.031 TIME LEFT:  2.00D  GRAD.:     2.312 HEAT: -35.20304
 CYCLE:   192 TIME:   0.035 TIME LEFT:  2.00D  GRAD.:     2.703 HEAT: -35.20701
 CYCLE:   193 TIME:   0.035 TIME LEFT:  2.00D  GRAD.:     3.769 HEAT: -35.20761
 CYCLE:   194 TIME:   0.031 TIME LEFT:  2.00D  GRAD.:     2.732 HEAT: -35.21104
 CYCLE:   195 TIME:   0.031 TIME LEFT:  2.00D  GRAD.:     2.057 HEAT: -35.21643
 CYCLE:   196 TIME:   0.035 TIME LEFT:  2.00D  GRAD.:     3.318 HEAT: -35.21624
 CYCLE:   197 TIME:   0.035 TIME LEFT:  2.00D  GRAD.:     1.928 HEAT: -35.22360
 CYCLE:   198 TIME:   0.035 TIME LEFT:  2.00D  GRAD.:     2.292 HEAT: -35.22316
 CYCLE:   199 TIME:   0.035 TIME LEFT:  2.00D  GRAD.:     3.372 HEAT: -35.22751
 CYCLE:   200 TIME:   0.031 TIME LEFT:  2.00D  GRAD.:     1.384 HEAT: -35.23126
 CYCLE:   201 TIME:   0.035 TIME LEFT:  2.00D  GRAD.:     1.335 HEAT: -35.23215
 CYCLE:   202 TIME:   0.035 TIME LEFT:  2.00D  GRAD.:     2.941 HEAT: -35.23584
 CYCLE:   203 TIME:   0.035 TIME LEFT:  2.00D  GRAD.:     2.230 HEAT: -35.24142
 CYCLE:   204 TIME:   0.039 TIME LEFT:  2.00D  GRAD.:     2.942 HEAT: -35.24370
 CYCLE:   205 TIME:   0.031 TIME LEFT:  2.00D  GRAD.:     7.018 HEAT: -35.24181
 CYCLE:   206 TIME:   0.031 TIME LEFT:  2.00D  GRAD.:     2.208 HEAT: -35.25281
 CYCLE:   207 TIME:   0.035 TIME LEFT:  2.00D  GRAD.:     1.325 HEAT: -35.25590
 CYCLE:   208 TIME:   0.035 TIME LEFT:  2.00D  GRAD.:     2.066 HEAT: -35.25792
 CYCLE:   209 TIME:   0.035 TIME LEFT:  2.00D  GRAD.:     9.641 HEAT: -35.25044
 CYCLE:   210 TIME:   0.031 TIME LEFT:  2.00D  GRAD.:     1.821 HEAT: -35.26546
 CYCLE:   211 TIME:   0.031 TIME LEFT:  2.00D  GRAD.:     1.435 HEAT: -35.26678
 CYCLE:   212 TIME:   0.039 TIME LEFT:  2.00D  GRAD.:     2.353 HEAT: -35.27061
 CYCLE:   213 TIME:   0.031 TIME LEFT:  2.00D  GRAD.:     1.988 HEAT: -35.27359
 CYCLE:   214 TIME:   0.039 TIME LEFT:  2.00D  GRAD.:     1.906 HEAT: -35.27786
 CYCLE:   215 TIME:   0.031 TIME LEFT:  2.00D  GRAD.:     2.077 HEAT: -35.27919
 CYCLE:   216 TIME:   0.035 TIME LEFT:  2.00D  GRAD.:     1.546 HEAT: -35.28037
 CYCLE:   217 TIME:   0.035 TIME LEFT:  2.00D  GRAD.:     1.324 HEAT: -35.28198
 CYCLE:   218 TIME:   0.035 TIME LEFT:  2.00D  GRAD.:     3.076 HEAT: -35.28366
 CYCLE:   219 TIME:   0.031 TIME LEFT:  2.00D  GRAD.:     1.964 HEAT: -35.28612
 CYCLE:   220 TIME:   0.035 TIME LEFT:  2.00D  GRAD.:     1.462 HEAT: -35.28926
 CYCLE:   221 TIME:   0.035 TIME LEFT:  2.00D  GRAD.:     1.629 HEAT: -35.29098
 CYCLE:   222 TIME:   0.035 TIME LEFT:  2.00D  GRAD.:     2.963 HEAT: -35.29262
 CYCLE:   223 TIME:   0.031 TIME LEFT:  2.00D  GRAD.:     1.604 HEAT: -35.29559
 CYCLE:   224 TIME:   0.031 TIME LEFT:  2.00D  GRAD.:     1.290 HEAT: -35.29704
 CYCLE:   225 TIME:   0.035 TIME LEFT:  2.00D  GRAD.:     1.636 HEAT: -35.29912
 CYCLE:   226 TIME:   0.031 TIME LEFT:  2.00D  GRAD.:     2.722 HEAT: -35.30246
 CYCLE:   227 TIME:   0.035 TIME LEFT:  2.00D  GRAD.:     2.786 HEAT: -35.30543
 CYCLE:   228 TIME:   0.035 TIME LEFT:  2.00D  GRAD.:     4.383 HEAT: -35.30761
 CYCLE:   229 TIME:   0.031 TIME LEFT:  2.00D  GRAD.:     3.121 HEAT: -35.31112
 CYCLE:   230 TIME:   0.035 TIME LEFT:  2.00D  GRAD.:     2.669 HEAT: -35.31069
 CYCLE:   231 TIME:   0.031 TIME LEFT:  2.00D  GRAD.:    31.212 HEAT: -35.08264
 CYCLE:   232 TIME:   0.031 TIME LEFT:  2.00D  GRAD.:     1.687 HEAT: -35.31805
 CYCLE:   233 TIME:   0.031 TIME LEFT:  2.00D  GRAD.:     1.324 HEAT: -35.31887
 CYCLE:   234 TIME:   0.031 TIME LEFT:  2.00D  GRAD.:     1.460 HEAT: -35.31979
 CYCLE:   235 TIME:   0.039 TIME LEFT:  2.00D  GRAD.:     3.081 HEAT: -35.31970
 CYCLE:   236 TIME:   0.035 TIME LEFT:  2.00D  GRAD.:     6.139 HEAT: -35.31614
 CYCLE:   237 TIME:   0.031 TIME LEFT:  2.00D  GRAD.:     1.008 HEAT: -35.32366
 CYCLE:   238 TIME:   0.035 TIME LEFT:  2.00D  GRAD.:     1.414 HEAT: -35.32459
 CYCLE:   239 TIME:   0.039 TIME LEFT:  2.00D  GRAD.:     2.099 HEAT: -35.32703
 CYCLE:   240 TIME:   0.031 TIME LEFT:  2.00D  GRAD.:     1.462 HEAT: -35.32902
 CYCLE:   241 TIME:   0.035 TIME LEFT:  2.00D  GRAD.:     1.466 HEAT: -35.33070
 CYCLE:   242 TIME:   0.035 TIME LEFT:  2.00D  GRAD.:     3.753 HEAT: -35.33049
 CYCLE:   243 TIME:   0.031 TIME LEFT:  2.00D  GRAD.:     1.631 HEAT: -35.33374
 CYCLE:   244 TIME:   0.031 TIME LEFT:  2.00D  GRAD.:     1.051 HEAT: -35.33427
 CYCLE:   245 TIME:   0.035 TIME LEFT:  2.00D  GRAD.:     2.276 HEAT: -35.33488
 CYCLE:   246 TIME:   0.031 TIME LEFT:  2.00D  GRAD.:     1.045 HEAT: -35.33595
 CYCLE:   247 TIME:   0.035 TIME LEFT:  2.00D  GRAD.:     1.015 HEAT: -35.33699
 CYCLE:   248 TIME:   0.031 TIME LEFT:  2.00D  GRAD.:     1.207 HEAT: -35.33808
 CYCLE:   249 TIME:   0.035 TIME LEFT:  2.00D  GRAD.:     2.311 HEAT: -35.33985
 CYCLE:   250 TIME:   0.031 TIME LEFT:  2.00D  GRAD.:     1.509 HEAT: -35.34120
 CYCLE:   251 TIME:   0.031 TIME LEFT:  2.00D  GRAD.:     0.954 HEAT: -35.34222

 -------------------------------------------------------------------------------
 PM7 XYZ

 Lipophilicity_1382 - geometry optimisation


     HERBERTS TEST WAS SATISFIED IN BFGS                      
     SCF FIELD WAS ACHIEVED                                   


                              PM7 CALCULATION
                                                       MOPAC v23.0.3 Linux
                                                       Fri Jul 25 16:59:08 2025




          FINAL HEAT OF FORMATION =        -35.34222 KCAL/MOL =    -147.87183 KJ/MOL


          COSMO AREA              =        380.01 SQUARE ANGSTROMS
          COSMO VOLUME            =        418.94 CUBIC ANGSTROMS

          GRADIENT NORM           =          0.95385          =       0.13913 PER ATOM
          IONIZATION POTENTIAL    =          8.700150 EV
          HOMO LUMO ENERGIES (EV) =         -8.700 -1.056
          NO. OF FILLED LEVELS    =         70
          MOLECULAR WEIGHT        =        368.3944         POINT GROUP:  C1  

          MOLECULAR DIMENSIONS (Angstroms)

            Atom       Atom       Distance
            H    42    H    30    14.16890
            H    37    H    31     9.42328
            H    45    H    33     5.40838


          SCF CALCULATIONS        =        252

          WALL-CLOCK TIME         =      8.547 SECONDS
          COMPUTATION TIME        =          2 MINUTES AND 50.564 SECONDS




   ATOM   CHEMICAL          X               Y               Z
  NUMBER   SYMBOL      (ANGSTROMS)     (ANGSTROMS)     (ANGSTROMS)

     1       C         -6.04698457  *   0.96553359  *  -1.57345778  *
     2       C         -5.74219698  *  -0.39796878  *  -2.18851876  *
     3       C         -5.40431524  *  -1.43900652  *  -1.10204340  *
     4       N         -4.01646424  *  -1.31068245  *  -0.65314487  *
     5       C         -3.71452615  *  -0.66835799  *   0.51722583  *
     6       O         -4.60142728  *  -0.30323330  *   1.28734329  *
     7       C         -2.28376031  *  -0.46400837  *   0.83807568  *
     8       N         -1.36680497  *  -0.86790357  *  -0.10338378  *
     9       N         -0.12719020  *  -0.74325777  *   0.05315705  *
    10       C          0.40609491  *  -0.17546909  *   1.22114703  *
    11       C          1.81901582  *  -0.04421771  *   1.34093836  *
    12       C          2.33794083  *   0.50175299  *   2.50201788  *
    13       C          1.49295381  *   0.92603828  *   3.54475969  *
    14       C          0.12518955  *   0.81573812  *   3.42903117  *
    15       C         -0.44216809  *   0.26582182  *   2.26051289  *
    16       C         -1.87198083  *   0.12457831  *   2.05433980  *
    17       N         -2.77104916  *   0.53684110  *   2.97576304  *
    18       C          2.70538556  *  -0.45689602  *   0.26653614  *
    19       C          2.55456418  *  -1.67579988  *  -0.42070822  *
    20       N          3.38268799  *  -2.06384323  *  -1.40636419  *
    21       C          4.37667857  *  -1.19640597  *  -1.74698284  *
    22       O          5.15778036  *  -1.64282529  *  -2.74169981  *
    23       C          6.21973606  *  -0.76902795  *  -3.14467226  *
    24       N          4.61070645  *   0.01562920  *  -1.17219299  *
    25       C          3.76967405  *   0.36532114  *  -0.17297875  *
    26       O          3.92856358  *   1.54052976  *   0.45149780  *
    27       C          4.96990208  *   2.39813230  *  -0.02747426  *
    28       H         -5.23428404  *   1.29228545  *  -0.90961787  *
    29       H         -6.17990121  *   1.73320368  *  -2.34181157  *
    30       H         -6.95800470  *   0.93874291  *  -0.96428902  *
    31       H         -6.60972540  *  -0.74999941  *  -2.77656726  *
    32       H         -4.90349853  *  -0.31113041  *  -2.90575139  *
    33       H         -5.54848859  *  -2.47079995  *  -1.49424381  *
    34       H         -6.09353965  *  -1.32408363  *  -0.23026164  *
    35       H         -3.27944356  *  -1.53656994  *  -1.31020452  *
    36       H          3.41841891  *   0.61252953  *   2.61859347  *
    37       H          1.93936388  *   1.34584338  *   4.44585132  *
    38       H         -0.51381554  *   1.15248570  *   4.24243483  *
    39       H         -3.77008425  *   0.41716569  *   2.77718594  *
    40       H         -2.50299916  *   0.95832816  *   3.83731801  *
    41       H          1.73728839  *  -2.37893048  *  -0.18096095  *
    42       H          6.70451242  *  -1.36147572  *  -3.93117841  *
    43       H          5.81839371  *   0.17038103  *  -3.53900383  *
    44       H          6.90232829  *  -0.57411314  *  -2.31118317  *
    45       H          4.81457262  *   2.64209569  *  -1.08395595  *
    46       H          5.94767570  *   1.92820234  *   0.11787828  *
    47       H          4.84312717  *   3.28011856  *   0.61240806  *

                             CARTESIAN COORDINATES

   1    C       -6.046984566     0.965533588    -1.573457780
   2    C       -5.742196982    -0.397968776    -2.188518756
   3    C       -5.404315236    -1.439006521    -1.102043401
   4    N       -4.016464242    -1.310682447    -0.653144874
   5    C       -3.714526148    -0.668357987     0.517225827
   6    O       -4.601427275    -0.303233301     1.287343292
   7    C       -2.283760309    -0.464008370     0.838075676
   8    N       -1.366804974    -0.867903570    -0.103383778
   9    N       -0.127190200    -0.743257769     0.053157049
  10    C        0.406094914    -0.175469090     1.221147030
  11    C        1.819015822    -0.044217706     1.340938362
  12    C        2.337940833     0.501752993     2.502017885
  13    C        1.492953810     0.926038281     3.544759687
  14    C        0.125189554     0.815738125     3.429031167
  15    C       -0.442168092     0.265821824     2.260512894
  16    C       -1.871980830     0.124578306     2.054339803
  17    N       -2.771049162     0.536841100     2.975763044
  18    C        2.705385560    -0.456896020     0.266536137
  19    C        2.554564179    -1.675799879    -0.420708215
  20    N        3.382687995    -2.063843233    -1.406364188
  21    C        4.376678571    -1.196405973    -1.746982842
  22    O        5.157780359    -1.642825294    -2.741699812
  23    C        6.219736060    -0.769027950    -3.144672264
  24    N        4.610706448     0.015629199    -1.172192991
  25    C        3.769674052     0.365321142    -0.172978750
  26    O        3.928563577     1.540529759     0.451497804
  27    C        4.969902081     2.398132296    -0.027474256
  28    H       -5.234284038     1.292285450    -0.909617869
  29    H       -6.179901214     1.733203681    -2.341811574
  30    H       -6.958004696     0.938742906    -0.964289022
  31    H       -6.609725400    -0.749999411    -2.776567257
  32    H       -4.903498529    -0.311130407    -2.905751390
  33    H       -5.548488588    -2.470799954    -1.494243807
  34    H       -6.093539645    -1.324083632    -0.230261639
  35    H       -3.279443560    -1.536569938    -1.310204520
  36    H        3.418418913     0.612529529     2.618593475
  37    H        1.939363877     1.345843378     4.445851322
  38    H       -0.513815543     1.152485704     4.242434826
  39    H       -3.770084250     0.417165691     2.777185940
  40    H       -2.502999165     0.958328161     3.837318005
  41    H        1.737288393    -2.378930478    -0.180960955
  42    H        6.704512417    -1.361475716    -3.931178410
  43    H        5.818393711     0.170381031    -3.539003826
  44    H        6.902328292    -0.574113141    -2.311183173
  45    H        4.814572616     2.642095687    -1.083955948
  46    H        5.947675705     1.928202344     0.117878278
  47    H        4.843127173     3.280118561     0.612408061


           Empirical Formula: C18 H20 N6 O3  =    47 atoms



      MOLECULAR POINT GROUP   :   C1  


                  EIGENVALUES  
 -39.38169 -37.64536 -37.54572 -36.55201 -34.31269 -31.46903 -31.13734 -30.84484
 -29.64331 -29.26030 -28.22284 -27.67850 -27.41851 -25.88097 -25.50111 -24.68643
 -24.16482 -23.83105 -23.02395 -22.76485 -22.44639 -21.12620 -20.56890 -20.25049
 -19.66566 -18.99812 -18.82166 -18.36840 -17.91906 -17.16525 -16.83626 -16.77334
 -16.51761 -16.32486 -16.02821 -15.94861 -15.70631 -15.61184 -15.48383 -15.46040
 -14.77885 -14.52497 -14.50603 -14.41031 -14.39030 -14.13689 -13.94740 -13.45408
 -13.37238 -13.30313 -13.26732 -13.19354 -13.01063 -12.97454 -12.72102 -12.29410
 -12.26463 -11.93102 -11.87283 -11.83149 -11.68500 -10.90031 -10.72334 -10.43534
 -10.38076 -10.20595 -10.17160  -9.64091  -9.38617  -8.70015  -1.05606  -0.82007
  -0.22572  -0.02187   0.43041   1.03363   1.08179   1.20226   1.85614   2.12098
   2.23572   2.27609   2.46642   2.50597   2.68158   2.96624   3.14232   3.28907
   3.47308   3.54880   3.78706   3.98883   4.03850   4.11099   4.15403   4.25726
   4.39352   4.46601   4.50211   4.51710   4.55244   4.76298   4.79196   5.11370
   5.26358   5.26867   5.29228   5.31850   5.32540   5.34245   5.47283   5.51868
   5.53477   5.64061   5.73436   5.83779   5.84193   5.86643   5.87359   5.98473
   6.04178   6.16944   6.23929   6.52553   6.53522   6.60961   7.01607   7.28332


              NET ATOMIC CHARGES AND DIPOLE CONTRIBUTIONS

  ATOM NO.   TYPE          CHARGE      No. of ELECS.   s-Pop       p-Pop       
    1          C          -0.433635        4.4336     1.05136     3.38228
    2          C          -0.277987        4.2780     1.06109     3.21690
    3          C          -0.063813        4.0638     1.06809     2.99572
    4          N          -0.547104        5.5471     1.55345     3.99366
    5          C           0.633961        3.3660     1.05707     2.30896
    6          O          -0.628646        6.6286     1.88186     4.74678
    7          C          -0.299623        4.2996     1.06266     3.23696
    8          N          -0.049636        5.0496     1.73871     3.31092
    9          N          -0.203417        5.2034     1.76403     3.43938
   10          C           0.099602        3.9004     1.08191     2.81849
   11          C           0.048229        3.9518     1.05302     2.89875
   12          C          -0.125152        4.1252     1.09006     3.03509
   13          C          -0.143408        4.1434     1.08236     3.06104
   14          C          -0.127312        4.1273     1.07749     3.04982
   15          C          -0.140681        4.1407     1.05920     3.08148
   16          C           0.314482        3.6855     1.06396     2.62156
   17          N          -0.545925        5.5459     1.51732     4.02861
   18          C          -0.318088        4.3181     1.04605     3.27204
   19          C           0.217244        3.7828     1.11151     2.67125
   20          N          -0.488118        5.4881     1.75733     3.73079
   21          C           0.539608        3.4604     1.08067     2.37972
   22          O          -0.237101        6.2371     1.87035     4.36675
   23          C          -0.196840        4.1968     1.09226     3.10458
   24          N          -0.627367        5.6274     1.76273     3.86464
   25          C           0.465749        3.5343     1.08158     2.45268
   26          O          -0.284560        6.2846     1.86581     4.41875
   27          C          -0.182541        4.1825     1.09140     3.09114
   28          H           0.158692        0.8413     0.84131
   29          H           0.137279        0.8627     0.86272
   30          H           0.144209        0.8558     0.85579
   31          H           0.134858        0.8651     0.86514
   32          H           0.143293        0.8567     0.85671
   33          H           0.132158        0.8678     0.86784
   34          H           0.171187        0.8288     0.82881
   35          H           0.331428        0.6686     0.66857
   36          H           0.170153        0.8298     0.82985
   37          H           0.158925        0.8411     0.84108
   38          H           0.146269        0.8537     0.85373
   39          H           0.363507        0.6365     0.63649
   40          H           0.305587        0.6944     0.69441
   41          H           0.209504        0.7905     0.79050
   42          H           0.153810        0.8462     0.84619
   43          H           0.149032        0.8510     0.85097
   44          H           0.147627        0.8524     0.85237
   45          H           0.150249        0.8498     0.84975
   46          H           0.144645        0.8554     0.85536
   47          H           0.149667        0.8503     0.85033
 DIPOLE           X         Y         Z       TOTAL
 POINT-CHG.     2.851     3.170     1.454     4.504
 HYBRID        -0.572     1.278     1.726     2.223
 SUM            2.278     4.448     3.180     5.923


          ATOMIC ORBITAL ELECTRON POPULATIONS

     Atom    s        px        py        pz   
    1  C   1.05136   1.18122   1.05246   1.14860
    2  C   1.06109   1.14836   1.01161   1.05693
    3  C   1.06809   0.85442   1.06596   1.07535
    4  N   1.55345   1.15414   1.58688   1.25264
    5  C   1.05707   0.83072   0.71357   0.76468
    6  O   1.88186   1.55792   1.61149   1.57738
    7  C   1.06266   1.00158   1.23818   0.99720
    8  N   1.73871   0.98324   1.06495   1.26273
    9  N   1.76403   1.05074   1.17460   1.21404
   10  C   1.08191   0.97265   0.93750   0.90834
   11  C   1.05302   0.94734   0.98869   0.96272
   12  C   1.09006   1.09040   0.97199   0.97270
   13  C   1.08236   0.99447   1.01024   1.05634
   14  C   1.07749   1.02450   1.00403   1.02128
   15  C   1.05920   0.96558   1.09155   1.02435
   16  C   1.06396   0.90415   0.83677   0.88064
   17  N   1.51732   1.21057   1.57179   1.24625
   18  C   1.04605   1.08369   1.05732   1.13104
   19  C   1.11151   0.91438   0.94546   0.81141
   20  N   1.75733   1.13898   1.34285   1.24896
   21  C   1.08067   0.80790   0.77480   0.79701
   22  O   1.87035   1.44199   1.43164   1.49313
   23  C   1.09226   0.93960   1.05237   1.11260
   24  N   1.76273   1.37063   1.25404   1.23997
   25  C   1.08158   0.83567   0.81288   0.80413
   26  O   1.86581   1.54059   1.32249   1.55567
   27  C   1.09140   0.97356   0.98233   1.13526
   28  H   0.84131
   29  H   0.86272
   30  H   0.85579
   31  H   0.86514
   32  H   0.85671
   33  H   0.86784
   34  H   0.82881
   35  H   0.66857
   36  H   0.82985
   37  H   0.84108
   38  H   0.85373
   39  H   0.63649
   40  H   0.69441
   41  H   0.79050
   42  H   0.84619
   43  H   0.85097
   44  H   0.85237
   45  H   0.84975
   46  H   0.85536
   47  H   0.85033

 **********************
 *                    *
 * JOB ENDED NORMALLY *
 *                    *
 **********************



 TOTAL JOB TIME:             8.55 SECONDS

 == MOPAC DONE ==
