 *******************************************************************************
 **                                                                           **
 **                              MOPAC v23.0.3                                **
 **                                                                           **
 *******************************************************************************
 **          Digital Object Identifier (DOI): 10.5281/zenodo.6511958          **
 **    Visit the DOI location for information on how to cite this program.    **
 *******************************************************************************

                              PM7 CALCULATION RESULTS

 *******************************************************************************
 *  CALCULATION DONE:                                Fri Jul 25 17:23:38 2025  *
 *  PM7        - The PM7 Hamiltonian to be used
 *  XYZ        - CARTESIAN COORDINATE SYSTEM TO BE USED
 *  T=         - A TIME OF 172800.0 SECONDS REQUESTED
 *  DUMP=N     - RESTART FILE WRITTEN EVERY 7200.0 SECONDS REQUESTED
 *******************************************************************************
PM7 XYZ

 Lipophilicity_1497 - geometry optimisation
   ATOM   CHEMICAL          X               Y               Z
  NUMBER   SYMBOL      (ANGSTROMS)     (ANGSTROMS)     (ANGSTROMS)

     1       C          2.19471100  *   2.07687200  *   0.01267600  *
     2       C          2.07289400  *   0.56554800  *   0.27227000  *
     3       C          0.81796300  *  -0.00970500  *  -0.47693800  *
     4       C         -0.47040500  *   0.19081900  *   0.35199900  *
     5       N         -1.65210200  *  -0.29372900  *  -0.39377400  *
     6       C         -2.89238400  *   0.00358600  *   0.35720200  *
     7       C         -4.09580400  *   0.08499200  *  -0.59437700  *
     8       N         -5.26747100  *   0.68009300  *   0.08443000  *
     9       C         -5.91552600  *  -0.28932600  *   0.99563100  *
    10       C         -7.26363800  *   0.25167700  *   1.51492900  *
    11       O         -7.41841000  *   1.62063500  *   1.19955600  *
    12       C         -7.47344700  *   1.77921800  *  -0.20595700  *
    13       C         -6.24483800  *   1.16396700  *  -0.90906100  *
    14       C         -1.53026700  *  -1.74510700  *  -0.65203700  *
    15       C         -0.30504500  *  -2.03040900  *  -1.52292600  *
    16       C          0.96920900  *  -1.51444300  *  -0.83765200  *
    17       C          2.19618500  *  -1.73953400  *  -1.74329800  *
    18       C          3.40318900  *  -1.16869100  *  -1.07694700  *
    19       N          4.66558600  *  -1.62460200  *  -1.23182500  *
    20       C          5.40962700  *  -0.90494800  *  -0.37270000  *
    21       C          6.77417900  *  -1.03809000  *  -0.13294300  *
    22       C          7.35426100  *  -0.22265500  *   0.85400800  *
    23       C          6.56137100  *   0.68475100  *   1.60564000  *
    24       C          5.18118700  *   0.80214100  *   1.32371800  *
    25       C          4.63971900  *   0.00158200  *   0.31693100  *
    26       C          3.34499100  *  -0.13234200  *  -0.15799100  *
    27       C          7.18684500  *   1.57863500  *   2.64692200  *
    28       F          7.38020000  *   2.83783600  *   2.10842200  *
    29       F          8.40668500  *   1.07864800  *   3.07004100  *
    30       F          6.35496700  *   1.68178000  *   3.74862100  *
    31       H          3.03955000  *   2.51649600  *   0.57772900  *
    32       H          1.27468900  *   2.60595000  *   0.33582400  *
    33       H          2.35806800  *   2.27564300  *  -1.06887500  *
    34       H          1.96036400  *   0.40066300  *   1.36578500  *
    35       H          0.68910800  *   0.54468600  *  -1.43548400  *
    36       H         -0.58627100  *   1.27585700  *   0.55906000  *
    37       H         -0.38311600  *  -0.33614700  *   1.33009300  *
    38       H         -3.06862400  *  -0.75649000  *   1.15065900  *
    39       H         -2.81468700  *   0.99303400  *   0.86260600  *
    40       H         -3.78968300  *   0.72570800  *  -1.45217300  *
    41       H         -4.34477500  *  -0.91741700  *  -1.00560600  *
    42       H         -5.25314800  *  -0.47400700  *   1.86795200  *
    43       H         -6.09169500  *  -1.26353900  *   0.48487400  *
    44       H         -7.30561800  *   0.13829100  *   2.61909200  *
    45       H         -8.10961200  *  -0.34507700  *   1.10146700  *
    46       H         -8.41354900  *   1.33886100  *  -0.60848900  *
    47       H         -7.51112200  *   2.86716400  *  -0.42628800  *
    48       H         -6.57517800  *   0.32777600  *  -1.56713200  *
    49       H         -5.77739800  *   1.94237300  *  -1.55194500  *
    50       H         -1.45257000  *  -2.31509300  *   0.30226600  *
    51       H         -2.42126200  *  -2.11762600  *  -1.19965100  *
    52       H         -0.43713600  *  -1.53562500  *  -2.51076400  *
    53       H         -0.22361400  *  -3.12651300  *  -1.69095600  *
    54       H          1.11708000  *  -2.09582600  *   0.10211200  *
    55       H          2.05570500  *  -1.23584100  *  -2.72381600  *
    56       H          2.34501500  *  -2.82748400  *  -1.91406100  *
    57       H          4.98689800  *  -2.40073700  *  -1.85363400  *
    58       H          7.37188700  *  -1.74958000  *  -0.68838000  *
    59       H          8.41844500  *  -0.30531400  *   1.03456500  *
    60       H          4.55781800  *   1.48061600  *   1.88897000  *



          CARTESIAN COORDINATES 

    NO.       ATOM           X           Y           Z

     1         C          2.1947      2.0769      0.0127
     2         C          2.0729      0.5655      0.2723
     3         C          0.8180     -0.0097     -0.4769
     4         C         -0.4704      0.1908      0.3520
     5         N         -1.6521     -0.2937     -0.3938
     6         C         -2.8924      0.0036      0.3572
     7         C         -4.0958      0.0850     -0.5944
     8         N         -5.2675      0.6801      0.0844
     9         C         -5.9155     -0.2893      0.9956
    10         C         -7.2636      0.2517      1.5149
    11         O         -7.4184      1.6206      1.1996
    12         C         -7.4734      1.7792     -0.2060
    13         C         -6.2448      1.1640     -0.9091
    14         C         -1.5303     -1.7451     -0.6520
    15         C         -0.3050     -2.0304     -1.5229
    16         C          0.9692     -1.5144     -0.8377
    17         C          2.1962     -1.7395     -1.7433
    18         C          3.4032     -1.1687     -1.0769
    19         N          4.6656     -1.6246     -1.2318
    20         C          5.4096     -0.9049     -0.3727
    21         C          6.7742     -1.0381     -0.1329
    22         C          7.3543     -0.2227      0.8540
    23         C          6.5614      0.6848      1.6056
    24         C          5.1812      0.8021      1.3237
    25         C          4.6397      0.0016      0.3169
    26         C          3.3450     -0.1323     -0.1580
    27         C          7.1868      1.5786      2.6469
    28         F          7.3802      2.8378      2.1084
    29         F          8.4067      1.0786      3.0700
    30         F          6.3550      1.6818      3.7486
    31         H          3.0396      2.5165      0.5777
    32         H          1.2747      2.6059      0.3358
    33         H          2.3581      2.2756     -1.0689
    34         H          1.9604      0.4007      1.3658
    35         H          0.6891      0.5447     -1.4355
    36         H         -0.5863      1.2759      0.5591
    37         H         -0.3831     -0.3361      1.3301
    38         H         -3.0686     -0.7565      1.1507
    39         H         -2.8147      0.9930      0.8626
    40         H         -3.7897      0.7257     -1.4522
    41         H         -4.3448     -0.9174     -1.0056
    42         H         -5.2531     -0.4740      1.8680
    43         H         -6.0917     -1.2635      0.4849
    44         H         -7.3056      0.1383      2.6191
    45         H         -8.1096     -0.3451      1.1015
    46         H         -8.4135      1.3389     -0.6085
    47         H         -7.5111      2.8672     -0.4263
    48         H         -6.5752      0.3278     -1.5671
    49         H         -5.7774      1.9424     -1.5519
    50         H         -1.4526     -2.3151      0.3023
    51         H         -2.4213     -2.1176     -1.1997
    52         H         -0.4371     -1.5356     -2.5108
    53         H         -0.2236     -3.1265     -1.6910
    54         H          1.1171     -2.0958      0.1021
    55         H          2.0557     -1.2358     -2.7238
    56         H          2.3450     -2.8275     -1.9141
    57         H          4.9869     -2.4007     -1.8536
    58         H          7.3719     -1.7496     -0.6884
    59         H          8.4184     -0.3053      1.0346
    60         H          4.5578      1.4806      1.8890

 General Reference for PM7:
 "Optimization of Parameters for Semiempirical Methods VI: More Modifications to the 
 NDDO Approximations and Re-optimization of Parameters", J. J. P. Stewart, J. Mol. Mod., 1:32, 19 (2013)
 https://link.springer.com/article/10.1007/s00894-012-1667-x

           Empirical Formula: C23 H30 N3 O F3  =    60 atoms



      MOLECULAR POINT GROUP   :   C1  


      RHF CALCULATION, NO. OF DOUBLY OCCUPIED LEVELS = 82


          Geometry optimization using L-BFGS
 CYCLE:     1 TIME:   0.086 TIME LEFT:  2.00D  GRAD.:   262.752 HEAT: -139.0031
 CYCLE:     2 TIME:   0.047 TIME LEFT:  2.00D  GRAD.:   256.535 HEAT: -139.6852
 CYCLE:     3 TIME:   0.055 TIME LEFT:  2.00D  GRAD.:    64.983 HEAT: -157.4744
 CYCLE:     4 TIME:   0.051 TIME LEFT:  2.00D  GRAD.:   256.841 HEAT: -139.6899
 CYCLE:     5 TIME:   0.051 TIME LEFT:  2.00D  GRAD.:    64.958 HEAT: -157.4765
 CYCLE:     6 TIME:   0.051 TIME LEFT:  2.00D  GRAD.:    48.969 HEAT: -159.2737
 CYCLE:     7 TIME:   0.051 TIME LEFT:  2.00D  GRAD.:    40.394 HEAT: -161.6107
 CYCLE:     8 TIME:   0.051 TIME LEFT:  2.00D  GRAD.:    64.567 HEAT: -161.9955
 CYCLE:     9 TIME:   0.047 TIME LEFT:  2.00D  GRAD.:    23.568 HEAT: -162.8110
 CYCLE:    10 TIME:   0.047 TIME LEFT:  2.00D  GRAD.:    16.686 HEAT: -163.1099
 CYCLE:    11 TIME:   0.047 TIME LEFT:  2.00D  GRAD.:    19.096 HEAT: -163.4780
 CYCLE:    12 TIME:   0.047 TIME LEFT:  2.00D  GRAD.:    23.092 HEAT: -163.8090
 CYCLE:    13 TIME:   0.055 TIME LEFT:  2.00D  GRAD.:    24.239 HEAT: -163.9425
 CYCLE:    14 TIME:   0.047 TIME LEFT:  2.00D  GRAD.:     8.870 HEAT: -164.1004
 CYCLE:    15 TIME:   0.047 TIME LEFT:  2.00D  GRAD.:     8.286 HEAT: -164.1610
 CYCLE:    16 TIME:   0.043 TIME LEFT:  2.00D  GRAD.:    10.695 HEAT: -164.2613
 CYCLE:    17 TIME:   0.047 TIME LEFT:  2.00D  GRAD.:    15.901 HEAT: -164.3802
 CYCLE:    18 TIME:   0.047 TIME LEFT:  2.00D  GRAD.:    11.195 HEAT: -164.4859
 CYCLE:    19 TIME:   0.043 TIME LEFT:  2.00D  GRAD.:     6.429 HEAT: -164.5530
 CYCLE:    20 TIME:   0.051 TIME LEFT:  2.00D  GRAD.:     6.890 HEAT: -164.6118
 CYCLE:    21 TIME:   0.047 TIME LEFT:  2.00D  GRAD.:     9.591 HEAT: -164.6465
 CYCLE:    22 TIME:   0.043 TIME LEFT:  2.00D  GRAD.:     5.977 HEAT: -164.6866
 CYCLE:    23 TIME:   0.047 TIME LEFT:  2.00D  GRAD.:     5.512 HEAT: -164.7206
 CYCLE:    24 TIME:   0.043 TIME LEFT:  2.00D  GRAD.:     6.146 HEAT: -164.7388
 CYCLE:    25 TIME:   0.047 TIME LEFT:  2.00D  GRAD.:     4.646 HEAT: -164.7552
 CYCLE:    26 TIME:   0.043 TIME LEFT:  2.00D  GRAD.:     5.893 HEAT: -164.7790
 CYCLE:    27 TIME:   0.047 TIME LEFT:  2.00D  GRAD.:     5.264 HEAT: -164.7916
 CYCLE:    28 TIME:   0.047 TIME LEFT:  2.00D  GRAD.:     3.501 HEAT: -164.8001
 CYCLE:    29 TIME:   0.043 TIME LEFT:  2.00D  GRAD.:     2.800 HEAT: -164.8156
 CYCLE:    30 TIME:   0.047 TIME LEFT:  2.00D  GRAD.:     3.668 HEAT: -164.8256
 CYCLE:    31 TIME:   0.047 TIME LEFT:  2.00D  GRAD.:     4.819 HEAT: -164.8391
 CYCLE:    32 TIME:   0.043 TIME LEFT:  2.00D  GRAD.:     3.092 HEAT: -164.8521
 CYCLE:    33 TIME:   0.047 TIME LEFT:  2.00D  GRAD.:     2.899 HEAT: -164.8623
 CYCLE:    34 TIME:   0.047 TIME LEFT:  2.00D  GRAD.:     3.510 HEAT: -164.8712
 CYCLE:    35 TIME:   0.043 TIME LEFT:  2.00D  GRAD.:     3.949 HEAT: -164.8791
 CYCLE:    36 TIME:   0.047 TIME LEFT:  2.00D  GRAD.:     2.550 HEAT: -164.8865
 CYCLE:    37 TIME:   0.047 TIME LEFT:  2.00D  GRAD.:     2.286 HEAT: -164.8937
 CYCLE:    38 TIME:   0.043 TIME LEFT:  2.00D  GRAD.:     2.972 HEAT: -164.9005
 CYCLE:    39 TIME:   0.047 TIME LEFT:  2.00D  GRAD.:     4.162 HEAT: -164.9076
 CYCLE:    40 TIME:   0.047 TIME LEFT:  2.00D  GRAD.:     2.810 HEAT: -164.9155
 CYCLE:    41 TIME:   0.047 TIME LEFT:  2.00D  GRAD.:     2.702 HEAT: -164.9231
 CYCLE:    42 TIME:   0.047 TIME LEFT:  2.00D  GRAD.:     3.161 HEAT: -164.9333
 CYCLE:    43 TIME:   0.047 TIME LEFT:  2.00D  GRAD.:     4.206 HEAT: -164.9448
 CYCLE:    44 TIME:   0.043 TIME LEFT:  2.00D  GRAD.:     3.985 HEAT: -164.9558
 CYCLE:    45 TIME:   0.047 TIME LEFT:  2.00D  GRAD.:     4.569 HEAT: -164.9667
 CYCLE:    46 TIME:   0.047 TIME LEFT:  2.00D  GRAD.:     4.152 HEAT: -164.9771
 CYCLE:    47 TIME:   0.047 TIME LEFT:  2.00D  GRAD.:     4.486 HEAT: -164.9862
 CYCLE:    48 TIME:   0.047 TIME LEFT:  2.00D  GRAD.:     9.602 HEAT: -164.9948
 CYCLE:    49 TIME:   0.051 TIME LEFT:  2.00D  GRAD.:    14.395 HEAT: -164.9868
 CYCLE:    50 TIME:   0.047 TIME LEFT:  2.00D  GRAD.:    10.268 HEAT: -165.0005
 CYCLE:    51 TIME:   0.051 TIME LEFT:  2.00D  GRAD.:     5.888 HEAT: -165.0293
 CYCLE:    52 TIME:   0.043 TIME LEFT:  2.00D  GRAD.:     4.454 HEAT: -165.0380
 CYCLE:    53 TIME:   0.047 TIME LEFT:  2.00D  GRAD.:     5.347 HEAT: -165.0476
 CYCLE:    54 TIME:   0.047 TIME LEFT:  2.00D  GRAD.:     5.436 HEAT: -165.0471
 CYCLE:    55 TIME:   0.043 TIME LEFT:  2.00D  GRAD.:     2.908 HEAT: -165.0644
 CYCLE:    56 TIME:   0.051 TIME LEFT:  2.00D  GRAD.:     4.996 HEAT: -165.0579
 CYCLE:    57 TIME:   0.051 TIME LEFT:  2.00D  GRAD.:    37.300 HEAT: -164.8002
 CYCLE:    58 TIME:   0.051 TIME LEFT:  2.00D  GRAD.:    10.145 HEAT: -165.0559
 CYCLE:    59 TIME:   0.047 TIME LEFT:  2.00D  GRAD.:     5.435 HEAT: -165.0950
 CYCLE:    60 TIME:   0.047 TIME LEFT:  2.00D  GRAD.:     5.606 HEAT: -165.1086
 CYCLE:    61 TIME:   0.043 TIME LEFT:  2.00D  GRAD.:     4.858 HEAT: -165.1277
 CYCLE:    62 TIME:   0.051 TIME LEFT:  2.00D  GRAD.:     6.222 HEAT: -165.1687
 CYCLE:    63 TIME:   0.051 TIME LEFT:  2.00D  GRAD.:     8.040 HEAT: -165.1845
 CYCLE:    64 TIME:   0.051 TIME LEFT:  2.00D  GRAD.:    15.054 HEAT: -165.2297
 CYCLE:    65 TIME:   0.051 TIME LEFT:  2.00D  GRAD.:     7.742 HEAT: -165.2952
 CYCLE:    66 TIME:   0.047 TIME LEFT:  2.00D  GRAD.:     6.228 HEAT: -165.3240
 CYCLE:    67 TIME:   0.051 TIME LEFT:  2.00D  GRAD.:    14.127 HEAT: -165.3453
 CYCLE:    68 TIME:   0.047 TIME LEFT:  2.00D  GRAD.:    14.130 HEAT: -165.3972
 CYCLE:    69 TIME:   0.051 TIME LEFT:  2.00D  GRAD.:     9.737 HEAT: -165.4733
 CYCLE:    70 TIME:   0.043 TIME LEFT:  2.00D  GRAD.:     5.396 HEAT: -165.5223
 CYCLE:    71 TIME:   0.051 TIME LEFT:  2.00D  GRAD.:     5.257 HEAT: -165.5834
 CYCLE:    72 TIME:   0.051 TIME LEFT:  2.00D  GRAD.:    15.515 HEAT: -165.5902
 CYCLE:    73 TIME:   0.047 TIME LEFT:  2.00D  GRAD.:     5.969 HEAT: -165.6656
 CYCLE:    74 TIME:   0.047 TIME LEFT:  2.00D  GRAD.:     4.057 HEAT: -165.6871
 CYCLE:    75 TIME:   0.047 TIME LEFT:  2.00D  GRAD.:     5.646 HEAT: -165.7233
 CYCLE:    76 TIME:   0.047 TIME LEFT:  2.00D  GRAD.:     9.529 HEAT: -165.7571
 CYCLE:    77 TIME:   0.051 TIME LEFT:  2.00D  GRAD.:     6.317 HEAT: -165.7980
 CYCLE:    78 TIME:   0.047 TIME LEFT:  2.00D  GRAD.:     5.157 HEAT: -165.8377
 CYCLE:    79 TIME:   0.051 TIME LEFT:  2.00D  GRAD.:     8.357 HEAT: -165.8666
 CYCLE:    80 TIME:   0.043 TIME LEFT:  2.00D  GRAD.:     6.390 HEAT: -165.9046
 CYCLE:    81 TIME:   0.051 TIME LEFT:  2.00D  GRAD.:     6.305 HEAT: -165.9507
 CYCLE:    82 TIME:   0.047 TIME LEFT:  2.00D  GRAD.:    11.915 HEAT: -165.9948
 CYCLE:    83 TIME:   0.051 TIME LEFT:  2.00D  GRAD.:     8.611 HEAT: -166.0443
 CYCLE:    84 TIME:   0.043 TIME LEFT:  2.00D  GRAD.:    11.557 HEAT: -166.0661
 CYCLE:    85 TIME:   0.047 TIME LEFT:  2.00D  GRAD.:     5.301 HEAT: -166.1136
 CYCLE:    86 TIME:   0.047 TIME LEFT:  2.00D  GRAD.:     4.634 HEAT: -166.1407
 CYCLE:    87 TIME:   0.043 TIME LEFT:  2.00D  GRAD.:     5.812 HEAT: -166.1712
 CYCLE:    88 TIME:   0.051 TIME LEFT:  2.00D  GRAD.:    15.290 HEAT: -166.1779
 CYCLE:    89 TIME:   0.043 TIME LEFT:  2.00D  GRAD.:     5.707 HEAT: -166.2311
 CYCLE:    90 TIME:   0.047 TIME LEFT:  2.00D  GRAD.:     3.900 HEAT: -166.2534
 CYCLE:    91 TIME:   0.043 TIME LEFT:  2.00D  GRAD.:     5.291 HEAT: -166.2795
 CYCLE:    92 TIME:   0.051 TIME LEFT:  2.00D  GRAD.:     8.417 HEAT: -166.3156
 CYCLE:    93 TIME:   0.051 TIME LEFT:  2.00D  GRAD.:    17.451 HEAT: -166.2926
 CYCLE:    94 TIME:   0.043 TIME LEFT:  2.00D  GRAD.:     5.500 HEAT: -166.3762
 CYCLE:    95 TIME:   0.047 TIME LEFT:  2.00D  GRAD.:     3.996 HEAT: -166.3973
 CYCLE:    96 TIME:   0.051 TIME LEFT:  2.00D  GRAD.:     4.768 HEAT: -166.4214
 CYCLE:    97 TIME:   0.047 TIME LEFT:  2.00D  GRAD.:     9.869 HEAT: -166.4474
 CYCLE:    98 TIME:   0.047 TIME LEFT:  2.00D  GRAD.:     6.635 HEAT: -166.4778
 CYCLE:    99 TIME:   0.043 TIME LEFT:  2.00D  GRAD.:     5.510 HEAT: -166.5073
 CYCLE:   100 TIME:   0.051 TIME LEFT:  2.00D  GRAD.:     6.506 HEAT: -166.5465
 CYCLE:   101 TIME:   0.047 TIME LEFT:  2.00D  GRAD.:     8.750 HEAT: -166.5902
 CYCLE:   102 TIME:   0.051 TIME LEFT:  2.00D  GRAD.:     9.383 HEAT: -166.6137
 CYCLE:   103 TIME:   0.043 TIME LEFT:  2.00D  GRAD.:     7.652 HEAT: -166.6599
 CYCLE:   104 TIME:   0.047 TIME LEFT:  2.00D  GRAD.:    10.366 HEAT: -166.7071
 CYCLE:   105 TIME:   0.047 TIME LEFT:  2.00D  GRAD.:     6.403 HEAT: -166.7414
 CYCLE:   106 TIME:   0.047 TIME LEFT:  2.00D  GRAD.:     6.989 HEAT: -166.7872
 CYCLE:   107 TIME:   0.051 TIME LEFT:  2.00D  GRAD.:    10.541 HEAT: -166.8324
 CYCLE:   108 TIME:   0.047 TIME LEFT:  2.00D  GRAD.:    10.721 HEAT: -166.8636
 CYCLE:   109 TIME:   0.051 TIME LEFT:  2.00D  GRAD.:    18.648 HEAT: -166.9014
 CYCLE:   110 TIME:   0.047 TIME LEFT:  2.00D  GRAD.:     6.743 HEAT: -166.9984
 CYCLE:   111 TIME:   0.047 TIME LEFT:  2.00D  GRAD.:     8.327 HEAT: -167.0241
 CYCLE:   112 TIME:   0.051 TIME LEFT:  2.00D  GRAD.:     9.647 HEAT: -167.0754
 CYCLE:   113 TIME:   0.051 TIME LEFT:  2.00D  GRAD.:    11.144 HEAT: -167.1037
 CYCLE:   114 TIME:   0.043 TIME LEFT:  2.00D  GRAD.:    10.531 HEAT: -167.1938
 CYCLE:   115 TIME:   0.047 TIME LEFT:  2.00D  GRAD.:     8.638 HEAT: -167.2362
 CYCLE:   116 TIME:   0.047 TIME LEFT:  2.00D  GRAD.:     7.415 HEAT: -167.2735
 CYCLE:   117 TIME:   0.051 TIME LEFT:  2.00D  GRAD.:     8.426 HEAT: -167.3188
 CYCLE:   118 TIME:   0.047 TIME LEFT:  2.00D  GRAD.:    10.019 HEAT: -167.3855
 CYCLE:   119 TIME:   0.047 TIME LEFT:  2.00D  GRAD.:    10.118 HEAT: -167.4561
 CYCLE:   120 TIME:   0.051 TIME LEFT:  2.00D  GRAD.:     8.732 HEAT: -167.5147
 CYCLE:   121 TIME:   0.047 TIME LEFT:  2.00D  GRAD.:     8.672 HEAT: -167.5671
 CYCLE:   122 TIME:   0.043 TIME LEFT:  2.00D  GRAD.:     6.445 HEAT: -167.6349
 CYCLE:   123 TIME:   0.055 TIME LEFT:  2.00D  GRAD.:    10.868 HEAT: -167.6855
 CYCLE:   124 TIME:   0.047 TIME LEFT:  2.00D  GRAD.:    10.845 HEAT: -167.7542
 CYCLE:   125 TIME:   0.047 TIME LEFT:  2.00D  GRAD.:     9.687 HEAT: -167.8351
 CYCLE:   126 TIME:   0.051 TIME LEFT:  2.00D  GRAD.:     7.723 HEAT: -167.9059
 CYCLE:   127 TIME:   0.047 TIME LEFT:  2.00D  GRAD.:     9.219 HEAT: -167.9672
 CYCLE:   128 TIME:   0.051 TIME LEFT:  2.00D  GRAD.:    13.042 HEAT: -167.9988
 CYCLE:   129 TIME:   0.043 TIME LEFT:  2.00D  GRAD.:     5.356 HEAT: -168.0398
 CYCLE:   130 TIME:   0.047 TIME LEFT:  2.00D  GRAD.:     4.397 HEAT: -168.0575
 CYCLE:   131 TIME:   0.043 TIME LEFT:  2.00D  GRAD.:     5.328 HEAT: -168.0818
 CYCLE:   132 TIME:   0.051 TIME LEFT:  2.00D  GRAD.:    10.605 HEAT: -168.1134
 CYCLE:   133 TIME:   0.047 TIME LEFT:  2.00D  GRAD.:     8.456 HEAT: -168.1416
 CYCLE:   134 TIME:   0.043 TIME LEFT:  2.00D  GRAD.:     4.477 HEAT: -168.1650
 CYCLE:   135 TIME:   0.047 TIME LEFT:  2.00D  GRAD.:     3.960 HEAT: -168.1875
 CYCLE:   136 TIME:   0.047 TIME LEFT:  2.00D  GRAD.:     5.691 HEAT: -168.2128
 CYCLE:   137 TIME:   0.047 TIME LEFT:  2.00D  GRAD.:     8.595 HEAT: -168.2352
 CYCLE:   138 TIME:   0.047 TIME LEFT:  2.00D  GRAD.:     8.496 HEAT: -168.2706
 CYCLE:   139 TIME:   0.047 TIME LEFT:  2.00D  GRAD.:     5.534 HEAT: -168.3026
 CYCLE:   140 TIME:   0.047 TIME LEFT:  2.00D  GRAD.:     5.021 HEAT: -168.3353
 CYCLE:   141 TIME:   0.047 TIME LEFT:  2.00D  GRAD.:     5.991 HEAT: -168.3601
 CYCLE:   142 TIME:   0.047 TIME LEFT:  2.00D  GRAD.:    11.168 HEAT: -168.3742
 CYCLE:   143 TIME:   0.047 TIME LEFT:  2.00D  GRAD.:     5.074 HEAT: -168.4129
 CYCLE:   144 TIME:   0.047 TIME LEFT:  2.00D  GRAD.:     3.800 HEAT: -168.4297
 CYCLE:   145 TIME:   0.047 TIME LEFT:  2.00D  GRAD.:     4.862 HEAT: -168.4503
 CYCLE:   146 TIME:   0.051 TIME LEFT:  2.00D  GRAD.:     9.685 HEAT: -168.4690
 CYCLE:   147 TIME:   0.043 TIME LEFT:  2.00D  GRAD.:     5.096 HEAT: -168.4961
 CYCLE:   148 TIME:   0.047 TIME LEFT:  2.00D  GRAD.:     4.074 HEAT: -168.5146
 CYCLE:   149 TIME:   0.047 TIME LEFT:  2.00D  GRAD.:     4.321 HEAT: -168.5323
 CYCLE:   150 TIME:   0.047 TIME LEFT:  2.00D  GRAD.:    11.607 HEAT: -168.5400
 CYCLE:   151 TIME:   0.047 TIME LEFT:  2.00D  GRAD.:     4.858 HEAT: -168.5626
 CYCLE:   152 TIME:   0.047 TIME LEFT:  2.00D  GRAD.:     2.914 HEAT: -168.5758
 CYCLE:   153 TIME:   0.047 TIME LEFT:  2.00D  GRAD.:     3.354 HEAT: -168.5851
 CYCLE:   154 TIME:   0.047 TIME LEFT:  2.00D  GRAD.:     3.990 HEAT: -168.5989
 CYCLE:   155 TIME:   0.047 TIME LEFT:  2.00D  GRAD.:    12.946 HEAT: -168.5899
 CYCLE:   156 TIME:   0.047 TIME LEFT:  2.00D  GRAD.:     3.540 HEAT: -168.6229
 CYCLE:   157 TIME:   0.047 TIME LEFT:  2.00D  GRAD.:     2.243 HEAT: -168.6277
 CYCLE:   158 TIME:   0.047 TIME LEFT:  2.00D  GRAD.:     2.079 HEAT: -168.6361
 CYCLE:   159 TIME:   0.051 TIME LEFT:  2.00D  GRAD.:     3.918 HEAT: -168.6490
 CYCLE:   160 TIME:   0.051 TIME LEFT:  2.00D  GRAD.:    17.263 HEAT: -168.6155
 CYCLE:   161 TIME:   0.043 TIME LEFT:  2.00D  GRAD.:     3.606 HEAT: -168.6715
 CYCLE:   162 TIME:   0.047 TIME LEFT:  2.00D  GRAD.:     2.425 HEAT: -168.6781
 CYCLE:   163 TIME:   0.055 TIME LEFT:  2.00D  GRAD.:     4.813 HEAT: -168.6993
 CYCLE:   164 TIME:   0.047 TIME LEFT:  2.00D  GRAD.:     4.575 HEAT: -168.7162
 CYCLE:   165 TIME:   0.047 TIME LEFT:  2.00D  GRAD.:     5.132 HEAT: -168.7345
 CYCLE:   166 TIME:   0.055 TIME LEFT:  2.00D  GRAD.:    18.974 HEAT: -168.6944
 CYCLE:   167 TIME:   0.043 TIME LEFT:  2.00D  GRAD.:     9.442 HEAT: -168.7466
 CYCLE:   168 TIME:   0.051 TIME LEFT:  2.00D  GRAD.:     3.057 HEAT: -168.7732
 CYCLE:   169 TIME:   0.051 TIME LEFT:  2.00D  GRAD.:     6.614 HEAT: -168.7868
 CYCLE:   170 TIME:   0.047 TIME LEFT:  2.00D  GRAD.:     3.379 HEAT: -168.8024
 CYCLE:   171 TIME:   0.055 TIME LEFT:  2.00D  GRAD.:     2.957 HEAT: -168.8194
 CYCLE:   172 TIME:   0.055 TIME LEFT:  2.00D  GRAD.:     5.613 HEAT: -168.8358
 CYCLE:   173 TIME:   0.047 TIME LEFT:  2.00D  GRAD.:     5.919 HEAT: -168.8495
 CYCLE:   174 TIME:   0.043 TIME LEFT:  2.00D  GRAD.:     3.755 HEAT: -168.8620
 CYCLE:   175 TIME:   0.047 TIME LEFT:  2.00D  GRAD.:     3.881 HEAT: -168.8748
 CYCLE:   176 TIME:   0.047 TIME LEFT:  2.00D  GRAD.:     3.550 HEAT: -168.8841
 CYCLE:   177 TIME:   0.043 TIME LEFT:  2.00D  GRAD.:     2.947 HEAT: -168.8959
 CYCLE:   178 TIME:   0.047 TIME LEFT:  2.00D  GRAD.:     5.022 HEAT: -168.9107
 CYCLE:   179 TIME:   0.047 TIME LEFT:  2.00D  GRAD.:     5.766 HEAT: -168.9218
 CYCLE:   180 TIME:   0.043 TIME LEFT:  2.00D  GRAD.:     3.517 HEAT: -168.9317
 CYCLE:   181 TIME:   0.047 TIME LEFT:  2.00D  GRAD.:     3.389 HEAT: -168.9415
 CYCLE:   182 TIME:   0.047 TIME LEFT:  2.00D  GRAD.:     2.526 HEAT: -168.9472
 CYCLE:   183 TIME:   0.047 TIME LEFT:  2.00D  GRAD.:     2.812 HEAT: -168.9552
 CYCLE:   184 TIME:   0.047 TIME LEFT:  2.00D  GRAD.:     7.332 HEAT: -168.9594
 CYCLE:   185 TIME:   0.047 TIME LEFT:  2.00D  GRAD.:     3.005 HEAT: -168.9708
 CYCLE:   186 TIME:   0.043 TIME LEFT:  2.00D  GRAD.:     1.918 HEAT: -168.9762
 CYCLE:   187 TIME:   0.047 TIME LEFT:  2.00D  GRAD.:     2.147 HEAT: -168.9813
 CYCLE:   188 TIME:   0.051 TIME LEFT:  2.00D  GRAD.:     4.666 HEAT: -168.9889
 CYCLE:   189 TIME:   0.047 TIME LEFT:  2.00D  GRAD.:     7.195 HEAT: -168.9914
 CYCLE:   190 TIME:   0.043 TIME LEFT:  2.00D  GRAD.:     2.309 HEAT: -169.0019
 CYCLE:   191 TIME:   0.047 TIME LEFT:  2.00D  GRAD.:     1.816 HEAT: -169.0059
 CYCLE:   192 TIME:   0.051 TIME LEFT:  2.00D  GRAD.:     4.309 HEAT: -169.0125
 CYCLE:   193 TIME:   0.047 TIME LEFT:  2.00D  GRAD.:     3.144 HEAT: -169.0199
 CYCLE:   194 TIME:   0.047 TIME LEFT:  2.00D  GRAD.:     3.084 HEAT: -169.0323
 CYCLE:   195 TIME:   0.047 TIME LEFT:  2.00D  GRAD.:     4.025 HEAT: -169.0411
 CYCLE:   196 TIME:   0.051 TIME LEFT:  2.00D  GRAD.:     3.646 HEAT: -169.0513
 CYCLE:   197 TIME:   0.051 TIME LEFT:  2.00D  GRAD.:     4.763 HEAT: -169.0561
 CYCLE:   198 TIME:   0.047 TIME LEFT:  2.00D  GRAD.:     2.462 HEAT: -169.0669
 CYCLE:   199 TIME:   0.047 TIME LEFT:  2.00D  GRAD.:     2.786 HEAT: -169.0727
 CYCLE:   200 TIME:   0.047 TIME LEFT:  2.00D  GRAD.:     3.007 HEAT: -169.0793
 CYCLE:   201 TIME:   0.047 TIME LEFT:  2.00D  GRAD.:     3.560 HEAT: -169.0828
 CYCLE:   202 TIME:   0.047 TIME LEFT:  2.00D  GRAD.:     2.529 HEAT: -169.0900
 CYCLE:   203 TIME:   0.047 TIME LEFT:  2.00D  GRAD.:     2.644 HEAT: -169.0937
 CYCLE:   204 TIME:   0.047 TIME LEFT:  2.00D  GRAD.:     2.015 HEAT: -169.0986
 CYCLE:   205 TIME:   0.059 TIME LEFT:  2.00D  GRAD.:     4.334 HEAT: -169.1000
 CYCLE:   206 TIME:   0.047 TIME LEFT:  2.00D  GRAD.:     5.695 HEAT: -169.1038
 CYCLE:   207 TIME:   0.047 TIME LEFT:  2.00D  GRAD.:     1.644 HEAT: -169.1097
 CYCLE:   208 TIME:   0.055 TIME LEFT:  2.00D  GRAD.:     1.539 HEAT: -169.1119
 CYCLE:   209 TIME:   0.051 TIME LEFT:  2.00D  GRAD.:     3.602 HEAT: -169.1146
 CYCLE:   210 TIME:   0.047 TIME LEFT:  2.00D  GRAD.:     2.578 HEAT: -169.1229
 CYCLE:   211 TIME:   0.047 TIME LEFT:  2.00D  GRAD.:     4.045 HEAT: -169.1252
 CYCLE:   212 TIME:   0.051 TIME LEFT:  2.00D  GRAD.:     2.100 HEAT: -169.1307
 CYCLE:   213 TIME:   0.055 TIME LEFT:  2.00D  GRAD.:     4.121 HEAT: -169.1316
 CYCLE:   214 TIME:   0.055 TIME LEFT:  2.00D  GRAD.:     1.941 HEAT: -169.1390
 CYCLE:   215 TIME:   0.043 TIME LEFT:  2.00D  GRAD.:     1.669 HEAT: -169.1420
 CYCLE:   216 TIME:   0.055 TIME LEFT:  2.00D  GRAD.:     4.081 HEAT: -169.1443
 CYCLE:   217 TIME:   0.047 TIME LEFT:  2.00D  GRAD.:     1.831 HEAT: -169.1491
 CYCLE:   218 TIME:   0.043 TIME LEFT:  2.00D  GRAD.:     1.277 HEAT: -169.1522
 CYCLE:   219 TIME:   0.051 TIME LEFT:  2.00D  GRAD.:     1.957 HEAT: -169.1554
 CYCLE:   220 TIME:   0.055 TIME LEFT:  2.00D  GRAD.:     3.366 HEAT: -169.1589
 CYCLE:   221 TIME:   0.043 TIME LEFT:  2.00D  GRAD.:     2.822 HEAT: -169.1630
 CYCLE:   222 TIME:   0.047 TIME LEFT:  2.00D  GRAD.:     2.492 HEAT: -169.1664
 CYCLE:   223 TIME:   0.051 TIME LEFT:  2.00D  GRAD.:     2.826 HEAT: -169.1710
 CYCLE:   224 TIME:   0.043 TIME LEFT:  2.00D  GRAD.:     3.857 HEAT: -169.1746
 CYCLE:   225 TIME:   0.047 TIME LEFT:  2.00D  GRAD.:     3.242 HEAT: -169.1801
 CYCLE:   226 TIME:   0.047 TIME LEFT:  2.00D  GRAD.:     4.157 HEAT: -169.1888
 CYCLE:   227 TIME:   0.047 TIME LEFT:  2.00D  GRAD.:     4.899 HEAT: -169.1939
 CYCLE:   228 TIME:   0.043 TIME LEFT:  2.00D  GRAD.:     3.649 HEAT: -169.2006
 CYCLE:   229 TIME:   0.051 TIME LEFT:  2.00D  GRAD.:     2.260 HEAT: -169.2050
 CYCLE:   230 TIME:   0.051 TIME LEFT:  2.00D  GRAD.:     6.444 HEAT: -169.2049
 CYCLE:   231 TIME:   0.066 TIME LEFT:  2.00D  GRAD.:     3.349 HEAT: -169.2201
 CYCLE:   232 TIME:   0.043 TIME LEFT:  2.00D  GRAD.:     1.920 HEAT: -169.2252
 CYCLE:   233 TIME:   0.051 TIME LEFT:  2.00D  GRAD.:     1.977 HEAT: -169.2297
 CYCLE:   234 TIME:   0.047 TIME LEFT:  2.00D  GRAD.:     2.554 HEAT: -169.2350
 CYCLE:   235 TIME:   0.055 TIME LEFT:  2.00D  GRAD.:     2.719 HEAT: -169.2364
 CYCLE:   236 TIME:   0.047 TIME LEFT:  2.00D  GRAD.:     3.922 HEAT: -169.2435
 CYCLE:   237 TIME:   0.047 TIME LEFT:  2.00D  GRAD.:     3.861 HEAT: -169.2489
 CYCLE:   238 TIME:   0.043 TIME LEFT:  2.00D  GRAD.:     1.792 HEAT: -169.2537
 CYCLE:   239 TIME:   0.055 TIME LEFT:  2.00D  GRAD.:     2.515 HEAT: -169.2567
 CYCLE:   240 TIME:   0.043 TIME LEFT:  2.00D  GRAD.:     2.080 HEAT: -169.2616
 CYCLE:   241 TIME:   0.055 TIME LEFT:  2.00D  GRAD.:     5.404 HEAT: -169.2646
 CYCLE:   242 TIME:   0.043 TIME LEFT:  2.00D  GRAD.:     2.059 HEAT: -169.2717
 CYCLE:   243 TIME:   0.051 TIME LEFT:  2.00D  GRAD.:     2.575 HEAT: -169.2744
 CYCLE:   244 TIME:   0.051 TIME LEFT:  2.00D  GRAD.:     2.295 HEAT: -169.2790
 CYCLE:   245 TIME:   0.051 TIME LEFT:  2.00D  GRAD.:     2.660 HEAT: -169.2830
 CYCLE:   246 TIME:   0.051 TIME LEFT:  2.00D  GRAD.:     5.989 HEAT: -169.2864
 CYCLE:   247 TIME:   0.043 TIME LEFT:  2.00D  GRAD.:     2.311 HEAT: -169.2938
 CYCLE:   248 TIME:   0.047 TIME LEFT:  2.00D  GRAD.:     1.764 HEAT: -169.2968
 CYCLE:   249 TIME:   0.129 TIME LEFT:  2.00D  GRAD.:     2.662 HEAT: -169.2998
 CYCLE:   250 TIME:   0.047 TIME LEFT:  2.00D  GRAD.:     3.596 HEAT: -169.3071
 CYCLE:   251 TIME:   0.051 TIME LEFT:  2.00D  GRAD.:     2.419 HEAT: -169.3129
 CYCLE:   252 TIME:   0.043 TIME LEFT:  2.00D  GRAD.:     1.757 HEAT: -169.3159
 CYCLE:   253 TIME:   0.055 TIME LEFT:  2.00D  GRAD.:     2.561 HEAT: -169.3192
 CYCLE:   254 TIME:   0.043 TIME LEFT:  2.00D  GRAD.:     2.935 HEAT: -169.3237
 CYCLE:   255 TIME:   0.047 TIME LEFT:  2.00D  GRAD.:     2.432 HEAT: -169.3291
 CYCLE:   256 TIME:   0.051 TIME LEFT:  2.00D  GRAD.:     2.622 HEAT: -169.3315
 CYCLE:   257 TIME:   0.047 TIME LEFT:  2.00D  GRAD.:     6.253 HEAT: -169.3323
 CYCLE:   258 TIME:   0.043 TIME LEFT:  2.00D  GRAD.:     1.832 HEAT: -169.3390
 CYCLE:   259 TIME:   0.047 TIME LEFT:  2.00D  GRAD.:     1.319 HEAT: -169.3409
 CYCLE:   260 TIME:   0.051 TIME LEFT:  2.00D  GRAD.:     4.937 HEAT: -169.3435
 CYCLE:   261 TIME:   0.047 TIME LEFT:  2.00D  GRAD.:     1.894 HEAT: -169.3485
 CYCLE:   262 TIME:   0.047 TIME LEFT:  2.00D  GRAD.:     1.393 HEAT: -169.3505
 CYCLE:   263 TIME:   0.051 TIME LEFT:  2.00D  GRAD.:     1.876 HEAT: -169.3550
 CYCLE:   264 TIME:   0.051 TIME LEFT:  2.00D  GRAD.:     4.563 HEAT: -169.3597
 CYCLE:   265 TIME:   0.051 TIME LEFT:  2.00D  GRAD.:     4.134 HEAT: -169.3655
 CYCLE:   266 TIME:   0.043 TIME LEFT:  2.00D  GRAD.:     2.521 HEAT: -169.3702
 CYCLE:   267 TIME:   0.055 TIME LEFT:  2.00D  GRAD.:     2.505 HEAT: -169.3746
 CYCLE:   268 TIME:   0.043 TIME LEFT:  2.00D  GRAD.:     4.367 HEAT: -169.3789
 CYCLE:   269 TIME:   0.059 TIME LEFT:  2.00D  GRAD.:     3.115 HEAT: -169.3881
 CYCLE:   270 TIME:   0.086 TIME LEFT:  2.00D  GRAD.:     3.693 HEAT: -169.3923
 CYCLE:   271 TIME:   0.047 TIME LEFT:  2.00D  GRAD.:     4.494 HEAT: -169.3928
 CYCLE:   272 TIME:   0.051 TIME LEFT:  2.00D  GRAD.:     7.245 HEAT: -169.3858
 CYCLE:   273 TIME:   0.047 TIME LEFT:  2.00D  GRAD.:    22.496 HEAT: -169.3156
 CYCLE:   274 TIME:   0.051 TIME LEFT:  2.00D  GRAD.:     7.568 HEAT: -169.3916
 CYCLE:   275 TIME:   0.043 TIME LEFT:  2.00D  GRAD.:     8.027 HEAT: -169.3837
 CYCLE:   276 TIME:   0.051 TIME LEFT:  2.00D  GRAD.:     6.791 HEAT: -169.3954
 CYCLE:   277 TIME:   0.051 TIME LEFT:  2.00D  GRAD.:     6.857 HEAT: -169.3879
 CYCLE:   278 TIME:   0.055 TIME LEFT:  2.00D  GRAD.:    51.095 HEAT: -168.8095
 CYCLE:   279 TIME:   0.055 TIME LEFT:  2.00D  GRAD.:   168.840 HEAT: -161.4025
 CYCLE:   280 TIME:   0.062 TIME LEFT:  2.00D  GRAD.:    17.509 HEAT: -169.3062
 CYCLE:   281 TIME:   0.051 TIME LEFT:  2.00D  GRAD.:    14.594 HEAT: -169.3836
 CYCLE:   282 TIME:   0.051 TIME LEFT:  2.00D  GRAD.:    31.957 HEAT: -169.2238
 CYCLE:   283 TIME:   0.055 TIME LEFT:  2.00D  GRAD.:     4.241 HEAT: -169.4246
 CYCLE:   284 TIME:   0.051 TIME LEFT:  2.00D  GRAD.:     5.869 HEAT: -169.4113
 CYCLE:   285 TIME:   0.047 TIME LEFT:  2.00D  GRAD.:     3.165 HEAT: -169.4234
 CYCLE:   286 TIME:   0.047 TIME LEFT:  2.00D  GRAD.:     5.231 HEAT: -169.4268
 CYCLE:   287 TIME:   0.051 TIME LEFT:  2.00D  GRAD.:     3.349 HEAT: -169.4292
 CYCLE:   288 TIME:   0.047 TIME LEFT:  2.00D  GRAD.:     1.764 HEAT: -169.4320
 CYCLE:   289 TIME:   0.043 TIME LEFT:  2.00D  GRAD.:     1.635 HEAT: -169.4336
 CYCLE:   290 TIME:   0.055 TIME LEFT:  2.00D  GRAD.:     6.022 HEAT: -169.4253
 CYCLE:   291 TIME:   0.047 TIME LEFT:  2.00D  GRAD.:     1.748 HEAT: -169.4373
 CYCLE:   292 TIME:   0.051 TIME LEFT:  2.00D  GRAD.:     1.215 HEAT: -169.4375
 CYCLE:   293 TIME:   0.043 TIME LEFT:  2.00D  GRAD.:     0.905 HEAT: -169.4391

 -------------------------------------------------------------------------------
 PM7 XYZ

 Lipophilicity_1497 - geometry optimisation


     HERBERTS TEST WAS SATISFIED IN BFGS                      
     SCF FIELD WAS ACHIEVED                                   


                              PM7 CALCULATION
                                                       MOPAC v23.0.3 Linux
                                                       Fri Jul 25 17:23:52 2025




          FINAL HEAT OF FORMATION =       -169.43907 KCAL/MOL =    -708.93309 KJ/MOL


          COSMO AREA              =        423.66 SQUARE ANGSTROMS
          COSMO VOLUME            =        496.33 CUBIC ANGSTROMS

          GRADIENT NORM           =          0.90535          =       0.11688 PER ATOM
          IONIZATION POTENTIAL    =          8.688790 EV
          HOMO LUMO ENERGIES (EV) =         -8.689 -0.453
          NO. OF FILLED LEVELS    =         82
          MOLECULAR WEIGHT        =        421.5047         POINT GROUP:  C1  

          MOLECULAR DIMENSIONS (Angstroms)

            Atom       Atom       Distance
            H    46    F    29    17.02119
            H    57    H    42     6.80452
            F    28    H    50     5.72604


          SCF CALCULATIONS        =        294

          WALL-CLOCK TIME         =     14.246 SECONDS
          COMPUTATION TIME        =          4 MINUTES AND 43.943 SECONDS




   ATOM   CHEMICAL          X               Y               Z
  NUMBER   SYMBOL      (ANGSTROMS)     (ANGSTROMS)     (ANGSTROMS)

     1       C          2.13870676  *   1.95230664  *   0.23445762  *
     2       C          2.03372030  *   0.43282784  *   0.43196705  *
     3       C          0.76862783  *  -0.09736697  *  -0.29877946  *
     4       C         -0.46710356  *   0.16006189  *   0.59288706  *
     5       N         -1.68446929  *  -0.30454850  *  -0.11298167  *
     6       C         -2.90916673  *   0.09133646  *   0.61887753  *
     7       C         -4.04783924  *   0.22462001  *  -0.42539305  *
     8       N         -5.17697035  *   0.93435831  *   0.21855200  *
     9       C         -5.97748324  *   0.04901904  *   1.09420969  *
    10       C         -7.20899379  *  -0.53120376  *   0.38731595  *
    11       O         -8.08797997  *   0.48048115  *  -0.07501143  *
    12       C         -7.46924196  *   1.73728305  *  -0.28625158  *
    13       C         -6.03427930  *   1.58774720  *  -0.80600182  *
    14       C         -1.62779301  *  -1.77060571  *  -0.32654628  *
    15       C         -0.44709107  *  -2.07855600  *  -1.26410866  *
    16       C          0.86759253  *  -1.60193985  *  -0.63282365  *
    17       C          2.03541296  *  -1.85312094  *  -1.61613003  *
    18       C          3.24421382  *  -1.24888297  *  -1.02123611  *
    19       N          4.55581709  *  -1.66097187  *  -1.29767239  *
    20       C          5.41666375  *  -0.91354022  *  -0.50154866  *
    21       C          6.81411655  *  -0.95378319  *  -0.40312517  *
    22       C          7.41241253  *  -0.10915933  *   0.51149489  *
    23       C          6.64103585  *   0.75213961  *   1.32252736  *
    24       C          5.26019802  *   0.81772850  *   1.21483824  *
    25       C          4.62559065  *  -0.01233082  *   0.29171581  *
    26       C          3.25520118  *  -0.23491004  *  -0.07780618  *
    27       C          7.35894489  *   1.62312800  *   2.30578088  *
    28       F          7.90157183  *   2.71396310  *   1.75980286  *
    29       F          8.37719005  *   1.03161299  *   2.93398465  *
    30       F          6.61037355  *   2.09825626  *   3.30276085  *
    31       H          2.99578158  *   2.36827063  *   0.77561207  *
    32       H          1.23971624  *   2.46713688  *   0.58827170  *
    33       H          2.27331052  *   2.20503908  *  -0.82434244  *
    34       H          1.94300778  *   0.21248812  *   1.52742141  *
    35       H          0.63695123  *   0.46264141  *  -1.25573183  *
    36       H         -0.56832788  *   1.25431918  *   0.76900290  *
    37       H         -0.33537245  *  -0.32309489  *   1.58378239  *
    38       H         -3.18811663  *  -0.61330536  *   1.42621480  *
    39       H         -2.76067183  *   1.08378773  *   1.10202139  *
    40       H         -3.66502920  *   0.83056219  *  -1.27882014  *
    41       H         -4.32609669  *  -0.76446222  *  -0.83795862  *
    42       H         -6.29917793  *   0.67718700  *   1.95940133  *
    43       H         -5.35290341  *  -0.76182116  *   1.51816712  *
    44       H         -7.84085769  *  -1.13168872  *   1.06501766  *
    45       H         -6.93081993  *  -1.13651412  *  -0.49415666  *
    46       H         -8.13426026  *   2.21664775  *  -1.02688923  *
    47       H         -7.50641547  *   2.30021682  *   0.66433718  *
    48       H         -6.04997103  *   1.03408696  *  -1.76960514  *
    49       H         -5.58581614  *   2.58681403  *  -1.00447449  *
    50       H         -1.52671510  *  -2.34097747  *   0.62122382  *
    51       H         -2.57756496  *  -2.09542550  *  -0.80232012  *
    52       H         -0.61108098  *  -1.56819671  *  -2.23393469  *
    53       H         -0.40829313  *  -3.16017554  *  -1.47871090  *
    54       H          1.05977952  *  -2.17163631  *   0.30630985  *
    55       H          1.81121299  *  -1.39368821  *  -2.60296107  *
    56       H          2.15219382  *  -2.93780934  *  -1.80259408  *
    57       H          4.81975188  *  -2.36911209  *  -1.94052134  *
    58       H          7.39842948  *  -1.62533042  *  -1.02262030  *
    59       H          8.50056176  *  -0.11075042  *   0.60445491  *
    60       H          4.65782773  *   1.48888138  *   1.82905090  *

                             CARTESIAN COORDINATES

   1    C        2.138706761     1.952306636     0.234457615
   2    C        2.033720295     0.432827840     0.431967052
   3    C        0.768627833    -0.097366974    -0.298779456
   4    C       -0.467103558     0.160061885     0.592887062
   5    N       -1.684469286    -0.304548499    -0.112981667
   6    C       -2.909166730     0.091336455     0.618877535
   7    C       -4.047839243     0.224620013    -0.425393052
   8    N       -5.176970351     0.934358307     0.218551999
   9    C       -5.977483243     0.049019036     1.094209688
  10    C       -7.208993786    -0.531203764     0.387315945
  11    O       -8.087979971     0.480481150    -0.075011429
  12    C       -7.469241961     1.737283048    -0.286251577
  13    C       -6.034279295     1.587747198    -0.806001820
  14    C       -1.627793012    -1.770605715    -0.326546276
  15    C       -0.447091071    -2.078556001    -1.264108658
  16    C        0.867592528    -1.601939847    -0.632823646
  17    C        2.035412963    -1.853120938    -1.616130033
  18    C        3.244213816    -1.248882965    -1.021236108
  19    N        4.555817087    -1.660971869    -1.297672392
  20    C        5.416663753    -0.913540218    -0.501548663
  21    C        6.814116546    -0.953783187    -0.403125167
  22    C        7.412412535    -0.109159329     0.511494890
  23    C        6.641035847     0.752139615     1.322527355
  24    C        5.260198024     0.817728505     1.214838238
  25    C        4.625590653    -0.012330822     0.291715809
  26    C        3.255201181    -0.234910039    -0.077806182
  27    C        7.358944886     1.623127999     2.305780881
  28    F        7.901571826     2.713963096     1.759802861
  29    F        8.377190046     1.031612994     2.933984647
  30    F        6.610373551     2.098256264     3.302760846
  31    H        2.995781580     2.368270625     0.775612069
  32    H        1.239716240     2.467136883     0.588271698
  33    H        2.273310520     2.205039078    -0.824342441
  34    H        1.943007776     0.212488117     1.527421407
  35    H        0.636951233     0.462641410    -1.255731830
  36    H       -0.568327882     1.254319179     0.769002902
  37    H       -0.335372455    -0.323094892     1.583782391
  38    H       -3.188116629    -0.613305362     1.426214804
  39    H       -2.760671829     1.083787725     1.102021391
  40    H       -3.665029198     0.830562191    -1.278820139
  41    H       -4.326096685    -0.764462223    -0.837958619
  42    H       -6.299177934     0.677186999     1.959401329
  43    H       -5.352903412    -0.761821165     1.518167120
  44    H       -7.840857688    -1.131688717     1.065017657
  45    H       -6.930819928    -1.136514120    -0.494156658
  46    H       -8.134260263     2.216647745    -1.026889231
  47    H       -7.506415466     2.300216821     0.664337178
  48    H       -6.049971034     1.034086962    -1.769605140
  49    H       -5.585816138     2.586814026    -1.004474493
  50    H       -1.526715104    -2.340977469     0.621223819
  51    H       -2.577564960    -2.095425504    -0.802320116
  52    H       -0.611080977    -1.568196714    -2.233934688
  53    H       -0.408293130    -3.160175541    -1.478710903
  54    H        1.059779521    -2.171636306     0.306309852
  55    H        1.811212989    -1.393688212    -2.602961072
  56    H        2.152193824    -2.937809343    -1.802594078
  57    H        4.819751877    -2.369112094    -1.940521338
  58    H        7.398429484    -1.625330417    -1.022620303
  59    H        8.500561761    -0.110750422     0.604454907
  60    H        4.657827734     1.488881377     1.829050900


           Empirical Formula: C23 H30 N3 O F3  =    60 atoms



      MOLECULAR POINT GROUP   :   C1  


                  EIGENVALUES  
 -41.52779 -41.06986 -41.02135 -37.94452 -35.53045 -35.13736 -30.75677 -30.62814
 -29.58408 -28.46067 -27.42044 -26.97695 -26.61579 -26.42791 -25.78464 -25.11715
 -24.72092 -24.02851 -23.25323 -22.98997 -22.42206 -21.68389 -21.30149 -20.74289
 -20.29841 -20.17165 -19.64219 -19.01898 -18.87769 -18.67438 -18.48119 -18.11010
 -17.90763 -17.60181 -17.31665 -16.74464 -16.43810 -16.28540 -16.21586 -16.14866
 -16.03845 -15.91254 -15.85940 -15.46529 -15.38131 -15.25206 -15.07873 -15.01794
 -14.96244 -14.86767 -14.70579 -14.59828 -14.50666 -14.34947 -14.14810 -13.87042
 -13.79607 -13.63569 -13.43966 -13.30137 -13.17477 -13.09334 -12.97705 -12.90157
 -12.71757 -12.58880 -12.51581 -12.41769 -12.17493 -12.07407 -11.98908 -11.81433
 -11.54387 -11.39076 -11.06477 -11.00175 -10.77851  -9.87305  -9.34487  -9.05932
  -8.88633  -8.68879  -0.45299  -0.13207   1.17535   1.79518   2.02498   2.10018
   2.15434   2.42661   2.58832   2.90805   3.07051   3.08380   3.29758   3.41286
   3.55072   3.67803   3.82264   3.86946   3.91396   3.93987   3.96000   4.05630
   4.23129   4.26005   4.29337   4.32223   4.51784   4.59180   4.67493   4.70714
   4.72333   4.84364   4.92573   5.01406   5.01879   5.19408   5.26543   5.27522
   5.31500   5.37082   5.45619   5.46464   5.48361   5.54657   5.61500   5.64320
   5.66966   5.70377   5.75766   5.78478   5.84883   5.86233   5.86661   5.88752
   5.94967   5.95700   5.97697   6.01962   6.04328   6.07757   6.15524   6.22056
   6.24741   6.26969   6.36108   6.38869   6.42543   6.98417


              NET ATOMIC CHARGES AND DIPOLE CONTRIBUTIONS

  ATOM NO.   TYPE          CHARGE      No. of ELECS.   s-Pop       p-Pop       
    1          C          -0.439800        4.4398     1.05552     3.38428
    2          C          -0.084176        4.0842     1.05353     3.03064
    3          C          -0.132145        4.1321     1.07561     3.05654
    4          C          -0.121422        4.1214     1.07335     3.04807
    5          N          -0.434068        5.4341     1.68798     3.74609
    6          C          -0.125814        4.1258     1.07159     3.05423
    7          C          -0.127669        4.1277     1.07284     3.05483
    8          N          -0.424345        5.4243     1.68983     3.73452
    9          C          -0.158694        4.1587     1.07443     3.08426
   10          C          -0.070998        4.0710     1.09219     2.97881
   11          O          -0.402978        6.4030     1.87842     4.52455
   12          C          -0.048493        4.0485     1.09041     2.95809
   13          C          -0.152495        4.1525     1.07516     3.07734
   14          C          -0.108075        4.1081     1.06819     3.03988
   15          C          -0.291379        4.2914     1.06488     3.22650
   16          C          -0.094100        4.0941     1.06630     3.02780
   17          C          -0.300897        4.3009     1.05720     3.24369
   18          C           0.099609        3.9004     1.06629     2.83410
   19          N          -0.390334        5.3903     1.51383     3.87650
   20          C           0.134890        3.8651     1.05979     2.80532
   21          C          -0.225963        4.2260     1.07039     3.15557
   22          C          -0.066060        4.0661     1.08140     2.98466
   23          C          -0.192566        4.1926     1.05782     3.13474
   24          C          -0.040104        4.0401     1.08323     2.95687
   25          C          -0.088699        4.0887     1.05578     3.03291
   26          C          -0.118603        4.1186     1.06079     3.05781
   27          C           0.565800        3.4342     1.15048     2.28372
   28          F          -0.211485        7.2115     1.96841     5.24308
   29          F          -0.211404        7.2114     1.96819     5.24321
   30          F          -0.212018        7.2120     1.96801     5.24401
   31          H           0.149749        0.8503     0.85025
   32          H           0.143981        0.8560     0.85602
   33          H           0.151734        0.8483     0.84827
   34          H           0.147251        0.8527     0.85275
   35          H           0.158782        0.8412     0.84122
   36          H           0.142595        0.8574     0.85740
   37          H           0.114900        0.8851     0.88510
   38          H           0.114653        0.8853     0.88535
   39          H           0.157149        0.8429     0.84285
   40          H           0.158751        0.8412     0.84125
   41          H           0.115640        0.8844     0.88436
   42          H           0.158263        0.8417     0.84174
   43          H           0.138755        0.8612     0.86125
   44          H           0.137544        0.8625     0.86246
   45          H           0.124316        0.8757     0.87568
   46          H           0.137726        0.8623     0.86227
   47          H           0.132398        0.8676     0.86760
   48          H           0.129682        0.8703     0.87032
   49          H           0.150496        0.8495     0.84950
   50          H           0.113525        0.8865     0.88647
   51          H           0.133182        0.8668     0.86682
   52          H           0.155363        0.8446     0.84464
   53          H           0.134520        0.8655     0.86548
   54          H           0.142101        0.8579     0.85790
   55          H           0.165330        0.8347     0.83467
   56          H           0.153176        0.8468     0.84682
   57          H           0.315145        0.6849     0.68486
   58          H           0.162847        0.8372     0.83715
   59          H           0.164953        0.8350     0.83505
   60          H           0.169978        0.8300     0.83002
 DIPOLE           X         Y         Z       TOTAL
 POINT-CHG.    -2.313    -3.562    -3.117     5.268
 HYBRID         0.136    -1.306    -0.234     1.334
 SUM           -2.177    -4.868    -3.350     6.297


          ATOMIC ORBITAL ELECTRON POPULATIONS

     Atom    s        px        py        pz   
    1  C   1.05552   1.17166   1.02922   1.18341
    2  C   1.05353   0.95977   0.97900   1.09188
    3  C   1.07561   0.96487   1.00891   1.08276
    4  C   1.07335   0.91247   1.11343   1.02217
    5  N   1.68798   1.07172   1.17593   1.49845
    6  C   1.07159   0.91079   1.13581   1.00763
    7  C   1.07284   0.92860   1.08577   1.04045
    8  N   1.68983   1.14318   1.34330   1.24804
    9  C   1.07443   1.00249   1.05572   1.02606
   10  C   1.09219   0.97062   0.92750   1.08068
   11  O   1.87842   1.36883   1.26406   1.89167
   12  C   1.09041   0.97629   0.86589   1.11591
   13  C   1.07516   0.97651   1.10113   0.99970
   14  C   1.06819   1.06695   0.88994   1.08299
   15  C   1.06488   0.99965   1.13008   1.09677
   16  C   1.06630   0.95224   1.02651   1.04905
   17  C   1.05720   1.00600   1.13526   1.10244
   18  C   1.06629   0.82074   0.99719   1.01618
   19  N   1.51383   1.12666   1.36370   1.38614
   20  C   1.05979   0.93493   0.94184   0.92855
   21  C   1.07039   0.99244   1.08494   1.07819
   22  C   1.08140   1.07547   0.95333   0.95586
   23  C   1.05782   0.99611   1.07601   1.06262
   24  C   1.08323   0.98718   0.98748   0.98222
   25  C   1.05578   0.97423   1.02949   1.02920
   26  C   1.06079   0.97442   1.03709   1.04631
   27  C   1.15048   0.74562   0.76377   0.77434
   28  F   1.96841   1.85994   1.52057   1.86256
   29  F   1.96819   1.57864   1.84327   1.82130
   30  F   1.96801   1.76438   1.88681   1.59282
   31  H   0.85025
   32  H   0.85602
   33  H   0.84827
   34  H   0.85275
   35  H   0.84122
   36  H   0.85740
   37  H   0.88510
   38  H   0.88535
   39  H   0.84285
   40  H   0.84125
   41  H   0.88436
   42  H   0.84174
   43  H   0.86125
   44  H   0.86246
   45  H   0.87568
   46  H   0.86227
   47  H   0.86760
   48  H   0.87032
   49  H   0.84950
   50  H   0.88647
   51  H   0.86682
   52  H   0.84464
   53  H   0.86548
   54  H   0.85790
   55  H   0.83467
   56  H   0.84682
   57  H   0.68486
   58  H   0.83715
   59  H   0.83505
   60  H   0.83002

 **********************
 *                    *
 * JOB ENDED NORMALLY *
 *                    *
 **********************



 TOTAL JOB TIME:            14.25 SECONDS

 == MOPAC DONE ==
