 *******************************************************************************
 **                                                                           **
 **                              MOPAC v23.0.3                                **
 **                                                                           **
 *******************************************************************************
 **          Digital Object Identifier (DOI): 10.5281/zenodo.6511958          **
 **    Visit the DOI location for information on how to cite this program.    **
 *******************************************************************************

                              PM7 CALCULATION RESULTS

 *******************************************************************************
 *  CALCULATION DONE:                                Fri Jul 25 18:54:10 2025  *
 *  PM7        - The PM7 Hamiltonian to be used
 *  XYZ        - CARTESIAN COORDINATE SYSTEM TO BE USED
 *  T=         - A TIME OF 172800.0 SECONDS REQUESTED
 *  DUMP=N     - RESTART FILE WRITTEN EVERY 7200.0 SECONDS REQUESTED
 *******************************************************************************
PM7 XYZ

 Lipophilicity_2006 - geometry optimisation
   ATOM   CHEMICAL          X               Y               Z
  NUMBER   SYMBOL      (ANGSTROMS)     (ANGSTROMS)     (ANGSTROMS)

     1       N         -0.57608100  *  -3.04774100  *   3.49345700  *
     2       C         -1.11204500  *  -1.99470000  *   2.68714700  *
     3       N         -0.30198900  *  -1.34718500  *   1.90019700  *
     4       C         -0.68653700  *  -0.21711100  *   1.04116900  *
     5       C          0.51427000  *   0.77128800  *   0.97598300  *
     6       C          1.38871700  *   0.54790100  *  -0.26051000  *
     7       N          0.57488200  *   0.69840400  *  -1.47684700  *
     8       C         -0.82203100  *   0.24061600  *  -1.48013500  *
     9       C         -1.06801800  *  -0.77433900  *  -0.35817400  *
    10       C          1.07642600  *   1.42465800  *  -2.61582300  *
    11       O          0.28289400  *   2.13119900  *  -3.29596600  *
    12       C          2.50115800  *   1.36086400  *  -3.01394400  *
    13       C          3.12042800  *   2.46677800  *  -3.61648700  *
    14       C          4.46105200  *   2.39774300  *  -3.99999400  *
    15       C          5.17281100  *   1.21325500  *  -3.78878600  *
    16       N          4.55551600  *   0.14290900  *  -3.22254000  *
    17       C          3.25207500  *   0.18727100  *  -2.83753900  *
    18       C          6.55370900  *   1.11569700  *  -4.17523600  *
    19       N          7.66555400  *   1.03710400  *  -4.48636100  *
    20       N         -1.85304000  *   0.47349400  *   1.61293000  *
    21       C         -2.84720500  *  -0.26785000  *   2.33344100  *
    22       C         -4.14081300  *   0.24975300  *   2.50796200  *
    23       F         -4.46007300  *   1.48395600  *   2.04357100  *
    24       C         -5.11923100  *  -0.51674000  *   3.14356700  *
    25       C         -4.81903600  *  -1.80413900  *   3.59066700  *
    26       C         -3.53084400  *  -2.32496200  *   3.43271600  *
    27       F         -3.30279700  *  -3.60442500  *   3.81866600  *
    28       C         -2.52170400  *  -1.54187300  *   2.83173900  *
    29       H         -1.04536600  *  -3.36418900  *   4.36873700  *
    30       H          0.38693900  *  -3.40609500  *   3.30640000  *
    31       H          1.14057300  *   0.68572500  *   1.89122000  *
    32       H          0.15251600  *   1.82256700  *   0.93897900  *
    33       H          2.21552200  *   1.29152600  *  -0.24718900  *
    34       H          1.83032800  *  -0.47095100  *  -0.22687300  *
    35       H         -1.49938200  *   1.11291800  *  -1.35433800  *
    36       H         -1.05212600  *  -0.24658300  *  -2.45279600  *
    37       H         -2.13304600  *  -1.09389200  *  -0.37433500  *
    38       H         -0.45836400  *  -1.67878100  *  -0.58041700  *
    39       H          2.57123800  *   3.38618700  *  -3.77821600  *
    40       H          4.93700300  *   3.25752100  *  -4.45605700  *
    41       H          2.79956500  *  -0.70034200  *  -2.41690900  *
    42       H         -2.09279100  *   1.42917100  *   1.26314700  *
    43       H         -6.11909300  *  -0.12181000  *   3.27016900  *
    44       H         -5.59156400  *  -2.40479600  *   4.05357900  *



          CARTESIAN COORDINATES 

    NO.       ATOM           X           Y           Z

     1         N         -0.5761     -3.0477      3.4935
     2         C         -1.1120     -1.9947      2.6871
     3         N         -0.3020     -1.3472      1.9002
     4         C         -0.6865     -0.2171      1.0412
     5         C          0.5143      0.7713      0.9760
     6         C          1.3887      0.5479     -0.2605
     7         N          0.5749      0.6984     -1.4768
     8         C         -0.8220      0.2406     -1.4801
     9         C         -1.0680     -0.7743     -0.3582
    10         C          1.0764      1.4247     -2.6158
    11         O          0.2829      2.1312     -3.2960
    12         C          2.5012      1.3609     -3.0139
    13         C          3.1204      2.4668     -3.6165
    14         C          4.4611      2.3977     -4.0000
    15         C          5.1728      1.2133     -3.7888
    16         N          4.5555      0.1429     -3.2225
    17         C          3.2521      0.1873     -2.8375
    18         C          6.5537      1.1157     -4.1752
    19         N          7.6656      1.0371     -4.4864
    20         N         -1.8530      0.4735      1.6129
    21         C         -2.8472     -0.2679      2.3334
    22         C         -4.1408      0.2498      2.5080
    23         F         -4.4601      1.4840      2.0436
    24         C         -5.1192     -0.5167      3.1436
    25         C         -4.8190     -1.8041      3.5907
    26         C         -3.5308     -2.3250      3.4327
    27         F         -3.3028     -3.6044      3.8187
    28         C         -2.5217     -1.5419      2.8317
    29         H         -1.0454     -3.3642      4.3687
    30         H          0.3869     -3.4061      3.3064
    31         H          1.1406      0.6857      1.8912
    32         H          0.1525      1.8226      0.9390
    33         H          2.2155      1.2915     -0.2472
    34         H          1.8303     -0.4710     -0.2269
    35         H         -1.4994      1.1129     -1.3543
    36         H         -1.0521     -0.2466     -2.4528
    37         H         -2.1330     -1.0939     -0.3743
    38         H         -0.4584     -1.6788     -0.5804
    39         H          2.5712      3.3862     -3.7782
    40         H          4.9370      3.2575     -4.4561
    41         H          2.7996     -0.7003     -2.4169
    42         H         -2.0928      1.4292      1.2631
    43         H         -6.1191     -0.1218      3.2702
    44         H         -5.5916     -2.4048      4.0536

 General Reference for PM7:
 "Optimization of Parameters for Semiempirical Methods VI: More Modifications to the 
 NDDO Approximations and Re-optimization of Parameters", J. J. P. Stewart, J. Mol. Mod., 1:32, 19 (2013)
 https://link.springer.com/article/10.1007/s00894-012-1667-x

           Empirical Formula: C19 H16 N6 O F2  =    44 atoms



      MOLECULAR POINT GROUP   :   C1  


      RHF CALCULATION, NO. OF DOUBLY OCCUPIED LEVELS = 71


          Geometry optimization using L-BFGS
 CYCLE:     1 TIME:   0.062 TIME LEFT:  2.00D  GRAD.:   211.765 HEAT:  6.301682
 CYCLE:     2 TIME:   0.031 TIME LEFT:  2.00D  GRAD.:   207.557 HEAT:  5.857797
 CYCLE:     3 TIME:   0.039 TIME LEFT:  2.00D  GRAD.:    71.160 HEAT: -6.817057
 CYCLE:     4 TIME:   0.039 TIME LEFT:  2.00D  GRAD.:   207.630 HEAT:  5.857570
 CYCLE:     5 TIME:   0.039 TIME LEFT:  2.00D  GRAD.:    71.225 HEAT: -6.816485
 CYCLE:     6 TIME:   0.031 TIME LEFT:  2.00D  GRAD.:    51.426 HEAT: -8.318162
 CYCLE:     7 TIME:   0.039 TIME LEFT:  2.00D  GRAD.:    73.697 HEAT: -10.66913
 CYCLE:     8 TIME:   0.031 TIME LEFT:  2.00D  GRAD.:   146.683 HEAT: -9.990405
 CYCLE:     9 TIME:   0.031 TIME LEFT:  2.00D  GRAD.:    30.310 HEAT: -11.52041
 CYCLE:    10 TIME:   0.031 TIME LEFT:  2.00D  GRAD.:    24.882 HEAT: -11.71041
 CYCLE:    11 TIME:   0.031 TIME LEFT:  2.00D  GRAD.:    22.446 HEAT: -12.44165
 CYCLE:    12 TIME:   0.031 TIME LEFT:  2.00D  GRAD.:    20.623 HEAT: -12.81789
 CYCLE:    13 TIME:   0.031 TIME LEFT:  2.00D  GRAD.:    30.847 HEAT: -13.20259
 CYCLE:    14 TIME:   0.039 TIME LEFT:  2.00D  GRAD.:    20.677 HEAT: -13.49212
 CYCLE:    15 TIME:   0.023 TIME LEFT:  2.00D  GRAD.:    13.915 HEAT: -13.65736
 CYCLE:    16 TIME:   0.031 TIME LEFT:  2.00D  GRAD.:    12.742 HEAT: -13.89373
 CYCLE:    17 TIME:   0.031 TIME LEFT:  2.00D  GRAD.:    27.393 HEAT: -14.10194
 CYCLE:    18 TIME:   0.039 TIME LEFT:  2.00D  GRAD.:    15.748 HEAT: -14.32349
 CYCLE:    19 TIME:   0.031 TIME LEFT:  2.00D  GRAD.:    11.496 HEAT: -14.48865
 CYCLE:    20 TIME:   0.031 TIME LEFT:  2.00D  GRAD.:    12.589 HEAT: -14.60642
 CYCLE:    21 TIME:   0.031 TIME LEFT:  2.00D  GRAD.:    19.972 HEAT: -14.69117
 CYCLE:    22 TIME:   0.031 TIME LEFT:  2.00D  GRAD.:     8.495 HEAT: -14.78366
 CYCLE:    23 TIME:   0.031 TIME LEFT:  2.00D  GRAD.:     7.371 HEAT: -14.82606
 CYCLE:    24 TIME:   0.031 TIME LEFT:  2.00D  GRAD.:     8.429 HEAT: -14.88064
 CYCLE:    25 TIME:   0.031 TIME LEFT:  2.00D  GRAD.:    45.408 HEAT: -14.80434
 CYCLE:    26 TIME:   0.031 TIME LEFT:  2.00D  GRAD.:     8.565 HEAT: -14.95579
 CYCLE:    27 TIME:   0.023 TIME LEFT:  2.00D  GRAD.:     5.970 HEAT: -14.97445
 CYCLE:    28 TIME:   0.031 TIME LEFT:  2.00D  GRAD.:     6.876 HEAT: -15.00991
 CYCLE:    29 TIME:   0.031 TIME LEFT:  2.00D  GRAD.:     7.169 HEAT: -15.05024
 CYCLE:    30 TIME:   0.031 TIME LEFT:  2.00D  GRAD.:    13.986 HEAT: -15.10901
 CYCLE:    31 TIME:   0.031 TIME LEFT:  2.00D  GRAD.:    11.365 HEAT: -15.13670
 CYCLE:    32 TIME:   0.031 TIME LEFT:  2.00D  GRAD.:     4.768 HEAT: -15.16866
 CYCLE:    33 TIME:   0.031 TIME LEFT:  2.00D  GRAD.:     4.689 HEAT: -15.18751
 CYCLE:    34 TIME:   0.031 TIME LEFT:  2.00D  GRAD.:     7.287 HEAT: -15.22290
 CYCLE:    35 TIME:   0.031 TIME LEFT:  2.00D  GRAD.:    10.466 HEAT: -15.26473
 CYCLE:    36 TIME:   0.031 TIME LEFT:  2.00D  GRAD.:     9.398 HEAT: -15.29483
 CYCLE:    37 TIME:   0.031 TIME LEFT:  2.00D  GRAD.:     4.846 HEAT: -15.32479
 CYCLE:    38 TIME:   0.031 TIME LEFT:  2.00D  GRAD.:     4.961 HEAT: -15.34803
 CYCLE:    39 TIME:   0.031 TIME LEFT:  2.00D  GRAD.:     6.613 HEAT: -15.36610
 CYCLE:    40 TIME:   0.031 TIME LEFT:  2.00D  GRAD.:    15.737 HEAT: -15.37307
 CYCLE:    41 TIME:   0.031 TIME LEFT:  2.00D  GRAD.:     4.267 HEAT: -15.40355
 CYCLE:    42 TIME:   0.031 TIME LEFT:  2.00D  GRAD.:     3.804 HEAT: -15.41064
 CYCLE:    43 TIME:   0.031 TIME LEFT:  2.00D  GRAD.:     3.896 HEAT: -15.42647
 CYCLE:    44 TIME:   0.031 TIME LEFT:  2.00D  GRAD.:    10.778 HEAT: -15.44060
 CYCLE:    45 TIME:   0.031 TIME LEFT:  2.00D  GRAD.:     4.359 HEAT: -15.46343
 CYCLE:    46 TIME:   0.023 TIME LEFT:  2.00D  GRAD.:     3.777 HEAT: -15.47415
 CYCLE:    47 TIME:   0.031 TIME LEFT:  2.00D  GRAD.:     4.679 HEAT: -15.49420
 CYCLE:    48 TIME:   0.031 TIME LEFT:  2.00D  GRAD.:     7.840 HEAT: -15.51710
 CYCLE:    49 TIME:   0.039 TIME LEFT:  2.00D  GRAD.:     7.465 HEAT: -15.53287
 CYCLE:    50 TIME:   0.031 TIME LEFT:  2.00D  GRAD.:     3.637 HEAT: -15.55078
 CYCLE:    51 TIME:   0.023 TIME LEFT:  2.00D  GRAD.:     3.567 HEAT: -15.56376
 CYCLE:    52 TIME:   0.031 TIME LEFT:  2.00D  GRAD.:     5.120 HEAT: -15.57807
 CYCLE:    53 TIME:   0.031 TIME LEFT:  2.00D  GRAD.:     4.961 HEAT: -15.60089
 CYCLE:    54 TIME:   0.039 TIME LEFT:  2.00D  GRAD.:    35.615 HEAT: -15.52998
 CYCLE:    55 TIME:   0.023 TIME LEFT:  2.00D  GRAD.:    29.970 HEAT: -15.52596
 CYCLE:    56 TIME:   0.031 TIME LEFT:  2.00D  GRAD.:     4.524 HEAT: -15.62684
 CYCLE:    57 TIME:   0.031 TIME LEFT:  2.00D  GRAD.:     5.208 HEAT: -15.63390
 CYCLE:    58 TIME:   0.031 TIME LEFT:  2.00D  GRAD.:     7.580 HEAT: -15.67910
 CYCLE:    59 TIME:   0.039 TIME LEFT:  2.00D  GRAD.:    15.033 HEAT: -15.69871
 CYCLE:    60 TIME:   0.031 TIME LEFT:  2.00D  GRAD.:     5.903 HEAT: -15.73752
 CYCLE:    61 TIME:   0.023 TIME LEFT:  2.00D  GRAD.:     5.587 HEAT: -15.75064
 CYCLE:    62 TIME:   0.039 TIME LEFT:  2.00D  GRAD.:     7.104 HEAT: -15.78046
 CYCLE:    63 TIME:   0.031 TIME LEFT:  2.00D  GRAD.:     7.569 HEAT: -15.80573
 CYCLE:    64 TIME:   0.031 TIME LEFT:  2.00D  GRAD.:     5.477 HEAT: -15.83737
 CYCLE:    65 TIME:   0.031 TIME LEFT:  2.00D  GRAD.:     6.036 HEAT: -15.86177
 CYCLE:    66 TIME:   0.031 TIME LEFT:  2.00D  GRAD.:     7.064 HEAT: -15.88591
 CYCLE:    67 TIME:   0.031 TIME LEFT:  2.00D  GRAD.:    15.549 HEAT: -15.89200
 CYCLE:    68 TIME:   0.031 TIME LEFT:  2.00D  GRAD.:     5.771 HEAT: -15.92153
 CYCLE:    69 TIME:   0.031 TIME LEFT:  2.00D  GRAD.:     4.640 HEAT: -15.93653
 CYCLE:    70 TIME:   0.031 TIME LEFT:  2.00D  GRAD.:     6.204 HEAT: -15.94534
 CYCLE:    71 TIME:   0.031 TIME LEFT:  2.00D  GRAD.:     5.383 HEAT: -15.96496
 CYCLE:    72 TIME:   0.031 TIME LEFT:  2.00D  GRAD.:     6.692 HEAT: -15.98261
 CYCLE:    73 TIME:   0.031 TIME LEFT:  2.00D  GRAD.:     6.119 HEAT: -16.00199
 CYCLE:    74 TIME:   0.039 TIME LEFT:  2.00D  GRAD.:     9.527 HEAT: -16.01028
 CYCLE:    75 TIME:   0.031 TIME LEFT:  2.00D  GRAD.:     3.606 HEAT: -16.02488
 CYCLE:    76 TIME:   0.031 TIME LEFT:  2.00D  GRAD.:     3.588 HEAT: -16.03055
 CYCLE:    77 TIME:   0.031 TIME LEFT:  2.00D  GRAD.:     3.407 HEAT: -16.04221
 CYCLE:    78 TIME:   0.031 TIME LEFT:  2.00D  GRAD.:     4.242 HEAT: -16.06352
 CYCLE:    79 TIME:   0.031 TIME LEFT:  2.00D  GRAD.:     6.700 HEAT: -16.07158
 CYCLE:    80 TIME:   0.031 TIME LEFT:  2.00D  GRAD.:     4.156 HEAT: -16.08301
 CYCLE:    81 TIME:   0.031 TIME LEFT:  2.00D  GRAD.:     3.744 HEAT: -16.09752
 CYCLE:    82 TIME:   0.031 TIME LEFT:  2.00D  GRAD.:     4.454 HEAT: -16.10721
 CYCLE:    83 TIME:   0.031 TIME LEFT:  2.00D  GRAD.:     7.009 HEAT: -16.12291
 CYCLE:    84 TIME:   0.039 TIME LEFT:  2.00D  GRAD.:    11.251 HEAT: -16.12681
 CYCLE:    85 TIME:   0.031 TIME LEFT:  2.00D  GRAD.:     4.686 HEAT: -16.14646
 CYCLE:    86 TIME:   0.031 TIME LEFT:  2.00D  GRAD.:     5.926 HEAT: -16.14812
 CYCLE:    87 TIME:   0.031 TIME LEFT:  2.00D  GRAD.:     3.832 HEAT: -16.15998
 CYCLE:    88 TIME:   0.031 TIME LEFT:  2.00D  GRAD.:    13.543 HEAT: -16.16137
 CYCLE:    89 TIME:   0.031 TIME LEFT:  2.00D  GRAD.:     6.950 HEAT: -16.16937
 CYCLE:    90 TIME:   0.031 TIME LEFT:  2.00D  GRAD.:     3.426 HEAT: -16.19546
 CYCLE:    91 TIME:   0.039 TIME LEFT:  2.00D  GRAD.:    11.266 HEAT: -16.19824
 CYCLE:    92 TIME:   0.031 TIME LEFT:  2.00D  GRAD.:     5.690 HEAT: -16.21642
 CYCLE:    93 TIME:   0.031 TIME LEFT:  2.00D  GRAD.:     3.071 HEAT: -16.22478
 CYCLE:    94 TIME:   0.031 TIME LEFT:  2.00D  GRAD.:     4.502 HEAT: -16.23690
 CYCLE:    95 TIME:   0.031 TIME LEFT:  2.00D  GRAD.:    12.810 HEAT: -16.25645
 CYCLE:    96 TIME:   0.031 TIME LEFT:  2.00D  GRAD.:     9.221 HEAT: -16.27492
 CYCLE:    97 TIME:   0.031 TIME LEFT:  2.00D  GRAD.:     3.699 HEAT: -16.29381
 CYCLE:    98 TIME:   0.039 TIME LEFT:  2.00D  GRAD.:    12.633 HEAT: -16.28778
 CYCLE:    99 TIME:   0.031 TIME LEFT:  2.00D  GRAD.:     4.368 HEAT: -16.31890
 CYCLE:   100 TIME:   0.031 TIME LEFT:  2.00D  GRAD.:     3.820 HEAT: -16.32625
 CYCLE:   101 TIME:   0.031 TIME LEFT:  2.00D  GRAD.:     3.450 HEAT: -16.34058
 CYCLE:   102 TIME:   0.047 TIME LEFT:  2.00D  GRAD.:     6.221 HEAT: -16.36437
 CYCLE:   103 TIME:   0.023 TIME LEFT:  2.00D  GRAD.:     6.922 HEAT: -16.38713
 CYCLE:   104 TIME:   0.039 TIME LEFT:  2.00D  GRAD.:     5.935 HEAT: -16.41216
 CYCLE:   105 TIME:   0.031 TIME LEFT:  2.00D  GRAD.:    11.104 HEAT: -16.38904
 CYCLE:   106 TIME:   0.031 TIME LEFT:  2.00D  GRAD.:     5.476 HEAT: -16.43468
 CYCLE:   107 TIME:   0.031 TIME LEFT:  2.00D  GRAD.:     4.296 HEAT: -16.43792
 CYCLE:   108 TIME:   0.039 TIME LEFT:  2.00D  GRAD.:     2.035 HEAT: -16.44379
 CYCLE:   109 TIME:   0.031 TIME LEFT:  2.00D  GRAD.:     5.799 HEAT: -16.45159
 CYCLE:   110 TIME:   0.031 TIME LEFT:  2.00D  GRAD.:     3.979 HEAT: -16.45914
 CYCLE:   111 TIME:   0.031 TIME LEFT:  2.00D  GRAD.:     7.859 HEAT: -16.47077
 CYCLE:   112 TIME:   0.031 TIME LEFT:  2.00D  GRAD.:     7.808 HEAT: -16.47524
 CYCLE:   113 TIME:   0.031 TIME LEFT:  2.00D  GRAD.:     2.277 HEAT: -16.48173
 CYCLE:   114 TIME:   0.031 TIME LEFT:  2.00D  GRAD.:     2.391 HEAT: -16.48512
 CYCLE:   115 TIME:   0.039 TIME LEFT:  2.00D  GRAD.:     5.372 HEAT: -16.49094
 CYCLE:   116 TIME:   0.031 TIME LEFT:  2.00D  GRAD.:     4.783 HEAT: -16.49966
 CYCLE:   117 TIME:   0.031 TIME LEFT:  2.00D  GRAD.:     2.623 HEAT: -16.50724
 CYCLE:   118 TIME:   0.023 TIME LEFT:  2.00D  GRAD.:     3.046 HEAT: -16.51144
 CYCLE:   119 TIME:   0.039 TIME LEFT:  2.00D  GRAD.:     5.431 HEAT: -16.52554
 CYCLE:   120 TIME:   0.031 TIME LEFT:  2.00D  GRAD.:     5.416 HEAT: -16.53939
 CYCLE:   121 TIME:   0.031 TIME LEFT:  2.00D  GRAD.:     4.303 HEAT: -16.55213
 CYCLE:   122 TIME:   0.031 TIME LEFT:  2.00D  GRAD.:     8.837 HEAT: -16.56061
 CYCLE:   123 TIME:   0.031 TIME LEFT:  2.00D  GRAD.:     3.715 HEAT: -16.57121
 CYCLE:   124 TIME:   0.031 TIME LEFT:  2.00D  GRAD.:     3.521 HEAT: -16.57756
 CYCLE:   125 TIME:   0.031 TIME LEFT:  2.00D  GRAD.:     5.423 HEAT: -16.58173
 CYCLE:   126 TIME:   0.031 TIME LEFT:  2.00D  GRAD.:     3.634 HEAT: -16.59259
 CYCLE:   127 TIME:   0.031 TIME LEFT:  2.00D  GRAD.:     6.330 HEAT: -16.60572
 CYCLE:   128 TIME:   0.031 TIME LEFT:  2.00D  GRAD.:    25.282 HEAT: -16.50845
 CYCLE:   129 TIME:   0.039 TIME LEFT:  2.00D  GRAD.:     3.883 HEAT: -16.60970
 CYCLE:   130 TIME:   0.031 TIME LEFT:  2.00D  GRAD.:    10.273 HEAT: -16.55707
 CYCLE:   131 TIME:   0.039 TIME LEFT:  2.00D  GRAD.:    10.293 HEAT: -16.61018
 CYCLE:   132 TIME:   0.031 TIME LEFT:  2.00D  GRAD.:   145.689 HEAT: -13.98665
 CYCLE:   133 TIME:   0.039 TIME LEFT:  2.00D  GRAD.:    19.563 HEAT: -16.55751
 CYCLE:   134 TIME:   0.031 TIME LEFT:  2.00D  GRAD.:    25.926 HEAT: -16.48412
 CYCLE:   135 TIME:   0.039 TIME LEFT:  2.00D  GRAD.:    41.184 HEAT: -16.27168
 CYCLE:   136 TIME:   0.031 TIME LEFT:  2.00D  GRAD.:    49.602 HEAT: -15.88327
 CYCLE:   137 TIME:   0.039 TIME LEFT:  2.00D  GRAD.:    34.406 HEAT: -16.37820
 CYCLE:   138 TIME:   0.039 TIME LEFT:  2.00D  GRAD.:   258.522 HEAT: -5.171380
 CYCLE:   139 TIME:   0.039 TIME LEFT:  2.00D  GRAD.:    22.587 HEAT: -16.51165
 CYCLE:   140 TIME:   0.031 TIME LEFT:  2.00D  GRAD.:    65.403 HEAT: -15.77619
 CYCLE:   141 TIME:   0.039 TIME LEFT:  2.00D  GRAD.:   100.014 HEAT: -15.27896
 CYCLE:   142 TIME:   0.031 TIME LEFT:  2.00D  GRAD.:   148.278 HEAT: -13.62900
 CYCLE:   143 TIME:   0.039 TIME LEFT:  2.00D  GRAD.:    64.537 HEAT: -15.99127
 CYCLE:   144 TIME:   0.031 TIME LEFT:  2.00D  GRAD.:    59.355 HEAT: -15.62653
 CYCLE:   145 TIME:   0.039 TIME LEFT:  2.00D  GRAD.:    12.631 HEAT: -16.55875
 CYCLE:   146 TIME:   0.031 TIME LEFT:  2.00D  GRAD.:     6.372 HEAT: -16.58351
 CYCLE:   147 TIME:   0.039 TIME LEFT:  2.00D  GRAD.:     4.356 HEAT: -16.59550
 CYCLE:   148 TIME:   0.031 TIME LEFT:  2.00D  GRAD.:     4.840 HEAT: -16.60402
 CYCLE:   149 TIME:   0.031 TIME LEFT:  2.00D  GRAD.:     6.773 HEAT: -16.61256
 CYCLE:   150 TIME:   0.031 TIME LEFT:  2.00D  GRAD.:     7.127 HEAT: -16.62295
 CYCLE:   151 TIME:   0.031 TIME LEFT:  2.00D  GRAD.:     6.924 HEAT: -16.64754
 CYCLE:   152 TIME:   0.039 TIME LEFT:  2.00D  GRAD.:    11.242 HEAT: -16.63887
 CYCLE:   153 TIME:   0.031 TIME LEFT:  2.00D  GRAD.:     7.886 HEAT: -16.66958
 CYCLE:   154 TIME:   0.031 TIME LEFT:  2.00D  GRAD.:     3.756 HEAT: -16.67970
 CYCLE:   155 TIME:   0.031 TIME LEFT:  2.00D  GRAD.:     3.283 HEAT: -16.68025
 CYCLE:   156 TIME:   0.031 TIME LEFT:  2.00D  GRAD.:     2.329 HEAT: -16.68139
 CYCLE:   157 TIME:   0.031 TIME LEFT:  2.00D  GRAD.:     5.874 HEAT: -16.68637
 CYCLE:   158 TIME:   0.031 TIME LEFT:  2.00D  GRAD.:     5.676 HEAT: -16.69254
 CYCLE:   159 TIME:   0.031 TIME LEFT:  2.00D  GRAD.:     6.983 HEAT: -16.69938
 CYCLE:   160 TIME:   0.039 TIME LEFT:  2.00D  GRAD.:     6.240 HEAT: -16.68662
 CYCLE:   161 TIME:   0.031 TIME LEFT:  2.00D  GRAD.:    24.422 HEAT: -16.57600
 CYCLE:   162 TIME:   0.031 TIME LEFT:  2.00D  GRAD.:     3.760 HEAT: -16.70813
 CYCLE:   163 TIME:   0.031 TIME LEFT:  2.00D  GRAD.:     2.017 HEAT: -16.71246
 CYCLE:   164 TIME:   0.039 TIME LEFT:  2.00D  GRAD.:    10.031 HEAT: -16.69041
 CYCLE:   165 TIME:   0.031 TIME LEFT:  2.00D  GRAD.:     2.095 HEAT: -16.71626
 CYCLE:   166 TIME:   0.031 TIME LEFT:  2.00D  GRAD.:     4.526 HEAT: -16.70650
 CYCLE:   167 TIME:   0.039 TIME LEFT:  2.00D  GRAD.:     4.472 HEAT: -16.71517
 CYCLE:   168 TIME:   0.031 TIME LEFT:  2.00D  GRAD.:     3.108 HEAT: -16.71904
 CYCLE:   169 TIME:   0.031 TIME LEFT:  2.00D  GRAD.:     5.396 HEAT: -16.70674
 CYCLE:   170 TIME:   0.031 TIME LEFT:  2.00D  GRAD.:     5.301 HEAT: -16.71833
 CYCLE:   171 TIME:   0.039 TIME LEFT:  2.00D  GRAD.:     2.683 HEAT: -16.71978
 CYCLE:   172 TIME:   0.031 TIME LEFT:  2.00D  GRAD.:     4.521 HEAT: -16.69869
 CYCLE:   173 TIME:   0.031 TIME LEFT:  2.00D  GRAD.:     5.230 HEAT: -16.71702
 CYCLE:   174 TIME:   0.039 TIME LEFT:  2.00D  GRAD.:     5.543 HEAT: -16.71356
 CYCLE:   175 TIME:   0.031 TIME LEFT:  2.00D  GRAD.:     3.567 HEAT: -16.72570
 CYCLE:   176 TIME:   0.031 TIME LEFT:  2.00D  GRAD.:     2.443 HEAT: -16.72155
 CYCLE:   177 TIME:   0.039 TIME LEFT:  2.00D  GRAD.:     1.361 HEAT: -16.72713
 CYCLE:   178 TIME:   0.039 TIME LEFT:  2.00D  GRAD.:     3.660 HEAT: -16.72273
 CYCLE:   179 TIME:   0.031 TIME LEFT:  2.00D  GRAD.:     3.015 HEAT: -16.72898
 CYCLE:   180 TIME:   0.031 TIME LEFT:  2.00D  GRAD.:     2.610 HEAT: -16.72575
 CYCLE:   181 TIME:   0.031 TIME LEFT:  2.00D  GRAD.:    11.348 HEAT: -16.71305
 CYCLE:   182 TIME:   0.031 TIME LEFT:  2.00D  GRAD.:     1.376 HEAT: -16.73119
 CYCLE:   183 TIME:   0.039 TIME LEFT:  2.00D  GRAD.:     0.816 HEAT: -16.73186

 -------------------------------------------------------------------------------
 PM7 XYZ

 Lipophilicity_2006 - geometry optimisation


     HERBERTS TEST WAS SATISFIED IN BFGS                      
     SCF FIELD WAS ACHIEVED                                   


                              PM7 CALCULATION
                                                       MOPAC v23.0.3 Linux
                                                       Fri Jul 25 18:54:16 2025




          FINAL HEAT OF FORMATION =        -16.73186 KCAL/MOL =     -70.00612 KJ/MOL


          COSMO AREA              =        371.34 SQUARE ANGSTROMS
          COSMO VOLUME            =        422.83 CUBIC ANGSTROMS

          GRADIENT NORM           =          0.81578          =       0.12298 PER ATOM
          IONIZATION POTENTIAL    =          8.988807 EV
          HOMO LUMO ENERGIES (EV) =         -8.989 -1.502
          NO. OF FILLED LEVELS    =         71
          MOLECULAR WEIGHT        =        382.3718         POINT GROUP:  C1  

          MOLECULAR DIMENSIONS (Angstroms)

            Atom       Atom       Distance
            H    44    N    19    15.87472
            H    39    H    30     6.90626
            H    31    H    36     4.17868


          SCF CALCULATIONS        =        184

          WALL-CLOCK TIME         =      6.031 SECONDS
          COMPUTATION TIME        =          2 MINUTES AND 0.409 SECONDS




   ATOM   CHEMICAL          X               Y               Z
  NUMBER   SYMBOL      (ANGSTROMS)     (ANGSTROMS)     (ANGSTROMS)

     1       N         -0.58737189  *  -3.09807475  *   3.16211691  *
     2       C         -1.08565870  *  -1.96879341  *   2.53145876  *
     3       N         -0.26446699  *  -1.36824878  *   1.70460172  *
     4       C         -0.70774332  *  -0.26186244  *   0.88888186  *
     5       C          0.47870247  *   0.72781248  *   0.72536602  *
     6       C          1.30683151  *   0.34690361  *  -0.50934869  *
     7       N          0.49856206  *   0.49428749  *  -1.72568042  *
     8       C         -0.94247721  *   0.21327512  *  -1.60758205  *
     9       C         -1.19593413  *  -0.79886708  *  -0.49076605  *
    10       C          1.00019951  *   0.85575006  *  -2.94931930  *
    11       O          0.25875123  *   0.99045311  *  -3.90540319  *
    12       C          2.46621744  *   1.08583908  *  -3.07144895  *
    13       C          2.93214306  *   2.34631909  *  -3.43353000  *
    14       C          4.30417110  *   2.53678086  *  -3.59990088  *
    15       C          5.15133508  *   1.43782571  *  -3.39859044  *
    16       N          4.70176237  *   0.20559861  *  -3.06437378  *
    17       C          3.38167236  *   0.03254878  *  -2.90976704  *
    18       C          6.56864058  *   1.57902142  *  -3.54069823  *
    19       N          7.71179428  *   1.70712197  *  -3.65451183  *
    20       N         -1.83952787  *   0.48069637  *   1.52836528  *
    21       C         -2.72090934  *  -0.16539848  *   2.34289619  *
    22       C         -3.94803580  *   0.43335562  *   2.74975682  *
    23       F         -4.17395983  *   1.69512576  *   2.41004776  *
    24       C         -4.91293626  *  -0.25251841  *   3.45859510  *
    25       C         -4.69117867  *  -1.59235030  *   3.79784884  *
    26       C         -3.47452970  *  -2.16822693  *   3.45969284  *
    27       F         -3.29733907  *  -3.43836651  *   3.78065050  *
    28       C         -2.44678218  *  -1.48500996  *   2.79975143  *
    29       H         -0.92243495  *  -3.35495139  *   4.06520860  *
    30       H          0.37436265  *  -3.33647019  *   2.97812554  *
    31       H          1.11905110  *   0.69175080  *   1.63148135  *
    32       H          0.12268136  *   1.77043372  *   0.64157762  *
    33       H          2.21352078  *   0.98905759  *  -0.56912702  *
    34       H          1.65252083  *  -0.71264398  *  -0.41503911  *
    35       H         -1.48773890  *   1.16595541  *  -1.42024549  *
    36       H         -1.32287690  *  -0.17916240  *  -2.58395861  *
    37       H         -2.26692900  *  -1.06693300  *  -0.44454563  *
    38       H         -0.66621948  *  -1.75182107  *  -0.70799882  *
    39       H          2.23072624  *   3.17021498  *  -3.59386481  *
    40       H          4.70558061  *   3.50814536  *  -3.88414112  *
    41       H          3.05639904  *  -0.98582428  *  -2.65106283  *
    42       H         -1.96783555  *   1.44921551  *   1.28087507  *
    43       H         -5.85075371  *   0.23270580  *   3.74296964  *
    44       H         -5.46198018  *  -2.16066167  *   4.31409845  *

                             CARTESIAN COORDINATES

   1    N       -0.587371889    -3.098074754     3.162116910
   2    C       -1.085658697    -1.968793407     2.531458757
   3    N       -0.264466992    -1.368248784     1.704601718
   4    C       -0.707743320    -0.261862444     0.888881861
   5    C        0.478702468     0.727812477     0.725366021
   6    C        1.306831512     0.346903612    -0.509348690
   7    N        0.498562064     0.494287489    -1.725680423
   8    C       -0.942477212     0.213275120    -1.607582049
   9    C       -1.195934127    -0.798867075    -0.490766054
  10    C        1.000199510     0.855750062    -2.949319297
  11    O        0.258751226     0.990453106    -3.905403185
  12    C        2.466217442     1.085839077    -3.071448946
  13    C        2.932143060     2.346319089    -3.433530001
  14    C        4.304171105     2.536780862    -3.599900881
  15    C        5.151335077     1.437825712    -3.398590439
  16    N        4.701762375     0.205598612    -3.064373777
  17    C        3.381672357     0.032548782    -2.909767035
  18    C        6.568640575     1.579021422    -3.540698234
  19    N        7.711794281     1.707121969    -3.654511828
  20    N       -1.839527867     0.480696374     1.528365280
  21    C       -2.720909343    -0.165398478     2.342896188
  22    C       -3.948035800     0.433355618     2.749756818
  23    F       -4.173959825     1.695125764     2.410047759
  24    C       -4.912936265    -0.252518411     3.458595099
  25    C       -4.691178665    -1.592350298     3.797848845
  26    C       -3.474529698    -2.168226931     3.459692837
  27    F       -3.297339072    -3.438366505     3.780650505
  28    C       -2.446782180    -1.485009957     2.799751433
  29    H       -0.922434954    -3.354951393     4.065208600
  30    H        0.374362648    -3.336470185     2.978125543
  31    H        1.119051095     0.691750799     1.631481352
  32    H        0.122681357     1.770433717     0.641577621
  33    H        2.213520777     0.989057592    -0.569127020
  34    H        1.652520830    -0.712643978    -0.415039109
  35    H       -1.487738898     1.165955414    -1.420245492
  36    H       -1.322876899    -0.179162400    -2.583958612
  37    H       -2.266929004    -1.066932995    -0.444545634
  38    H       -0.666219480    -1.751821074    -0.707998825
  39    H        2.230726244     3.170214983    -3.593864815
  40    H        4.705580606     3.508145364    -3.884141121
  41    H        3.056399043    -0.985824283    -2.651062832
  42    H       -1.967835553     1.449215511     1.280875069
  43    H       -5.850753706     0.232705795     3.742969640
  44    H       -5.461980183    -2.160661666     4.314098448


           Empirical Formula: C19 H16 N6 O F2  =    44 atoms



      MOLECULAR POINT GROUP   :   C1  


                  EIGENVALUES  
 -41.70889 -41.55795 -38.24119 -37.27708 -37.03967 -36.76876 -35.21919 -34.29964
 -31.17890 -30.70801 -29.43768 -28.73863 -28.05174 -26.93281 -26.74570 -25.94672
 -24.56233 -23.53631 -23.40366 -23.21197 -22.75110 -21.94983 -21.06353 -20.11189
 -19.90406 -19.64009 -19.09882 -18.65225 -18.29323 -17.90143 -17.78520 -17.66329
 -17.31160 -17.25640 -17.07632 -16.93836 -16.62465 -16.41419 -16.26551 -16.06579
 -15.82072 -15.70598 -15.48587 -15.15354 -15.02976 -14.70740 -14.56739 -14.47129
 -14.14647 -14.09746 -14.01115 -13.85743 -13.72855 -13.69738 -13.63181 -13.42087
 -13.39971 -13.16289 -12.84375 -12.70891 -12.46520 -11.94279 -11.65397 -11.35894
 -10.91278 -10.87858 -10.58462 -10.49651  -9.73281  -9.60270  -8.98881  -1.50190
  -1.00961  -0.89535  -0.45722   0.69617   0.70628   0.74858   1.02027   1.22231
   1.33265   1.64523   1.80485   2.03028   2.18469   2.31863   2.52666   2.68877
   2.75695   2.87837   2.89033   3.11261   3.27422   3.29321   3.35306   3.44038
   3.52180   3.63462   3.73392   3.78221   3.82600   3.94813   4.05970   4.18582
   4.23873   4.44288   4.69732   4.70819   4.87028   4.90488   4.93503   4.99014
   5.06110   5.12126   5.25085   5.25488   5.26954   5.33206   5.38861   5.44158
   5.46820   5.67720   5.69088   5.75319   5.84288   5.87626   6.05405   6.61563


              NET ATOMIC CHARGES AND DIPOLE CONTRIBUTIONS

  ATOM NO.   TYPE          CHARGE      No. of ELECS.   s-Pop       p-Pop       
    1          N          -0.593389        5.5934     1.54512     4.04827
    2          C           0.464638        3.5354     1.04188     2.49348
    3          N          -0.624383        5.6244     1.76275     3.86163
    4          C           0.446222        3.5538     1.07260     2.48118
    5          C          -0.319089        4.3191     1.07485     3.24424
    6          C          -0.048741        4.0487     1.06572     2.98302
    7          N          -0.500499        5.5005     1.57028     3.93022
    8          C          -0.043263        4.0433     1.06430     2.97896
    9          C          -0.358207        4.3582     1.07955     3.27866
   10          C           0.566540        3.4335     1.06190     2.37156
   11          O          -0.516911        6.5169     1.88310     4.63381
   12          C          -0.178935        4.1789     1.08574     3.09320
   13          C          -0.049235        4.0492     1.09173     2.95750
   14          C          -0.202551        4.2026     1.09009     3.11246
   15          C           0.175367        3.8246     1.04643     2.77820
   16          N          -0.331709        5.3317     1.74180     3.58991
   17          C           0.069200        3.9308     1.09946     2.83134
   18          C           0.100617        3.8994     1.10536     2.79402
   19          N          -0.191002        5.1910     1.82938     3.36163
   20          N          -0.570562        5.5706     1.55512     4.01544
   21          C           0.290371        3.7096     1.05467     2.65496
   22          C          -0.017624        4.0176     1.07872     2.93891
   23          F          -0.151847        7.1518     1.96635     5.18549
   24          C          -0.049909        4.0499     1.08632     2.96359
   25          C          -0.314376        4.3144     1.06887     3.24550
   26          C           0.299772        3.7002     1.09638     2.60385
   27          F          -0.162952        7.1630     1.96596     5.19699
   28          C          -0.341043        4.3410     1.04686     3.29419
   29          H           0.303569        0.6964     0.69643
   30          H           0.309892        0.6901     0.69011
   31          H           0.177728        0.8223     0.82227
   32          H           0.153418        0.8466     0.84658
   33          H           0.143407        0.8566     0.85659
   34          H           0.158676        0.8413     0.84132
   35          H           0.138058        0.8619     0.86194
   36          H           0.169907        0.8301     0.83009
   37          H           0.163787        0.8362     0.83621
   38          H           0.183880        0.8161     0.81612
   39          H           0.180768        0.8192     0.81923
   40          H           0.183063        0.8169     0.81694
   41          H           0.191659        0.8083     0.80834
   42          H           0.329698        0.6703     0.67030
   43          H           0.177916        0.8221     0.82208
   44          H           0.188079        0.8119     0.81192
 DIPOLE           X         Y         Z       TOTAL
 POINT-CHG.    -3.393     0.461     4.684     5.802
 HYBRID        -0.959     1.082     0.240     1.466
 SUM           -4.352     1.543     4.925     6.751


          ATOMIC ORBITAL ELECTRON POPULATIONS

     Atom    s        px        py        pz   
    1  N   1.54512   1.32102   1.37678   1.35047
    2  C   1.04188   0.85217   0.78706   0.85425
    3  N   1.76275   1.37741   1.22594   1.25828
    4  C   1.07260   0.79086   0.82478   0.86554
    5  C   1.07485   1.06729   1.08887   1.08809
    6  C   1.06572   0.99163   1.15002   0.84137
    7  N   1.57028   1.14236   1.65159   1.13626
    8  C   1.06430   0.81501   1.07804   1.08590
    9  C   1.07955   1.16798   1.10629   1.00438
   10  C   1.06190   0.84658   0.75687   0.76811
   11  O   1.88310   1.62959   1.56111   1.44311
   12  C   1.08574   1.02188   1.01360   1.05772
   13  C   1.09173   1.01628   1.03498   0.90624
   14  C   1.09009   1.00412   1.07435   1.03399
   15  C   1.04643   0.91616   0.90297   0.95907
   16  N   1.74180   1.21087   1.24672   1.13233
   17  C   1.09946   0.87295   1.04924   0.90914
   18  C   1.10536   0.91949   0.93238   0.94215
   19  N   1.82938   1.21731   1.07706   1.06726
   20  N   1.55512   1.32413   1.22152   1.46980
   21  C   1.05467   0.87251   0.92420   0.85825
   22  C   1.07872   0.98393   0.84437   1.11061
   23  F   1.96635   1.96046   1.29647   1.92856
   24  C   1.08632   1.04371   0.98864   0.93124
   25  C   1.06887   1.06197   1.02830   1.15523
   26  C   1.09638   0.93993   0.78611   0.87781
   27  F   1.96596   1.97070   1.30396   1.92233
   28  C   1.04686   1.02983   1.03714   1.22722
   29  H   0.69643
   30  H   0.69011
   31  H   0.82227
   32  H   0.84658
   33  H   0.85659
   34  H   0.84132
   35  H   0.86194
   36  H   0.83009
   37  H   0.83621
   38  H   0.81612
   39  H   0.81923
   40  H   0.81694
   41  H   0.80834
   42  H   0.67030
   43  H   0.82208
   44  H   0.81192

 **********************
 *                    *
 * JOB ENDED NORMALLY *
 *                    *
 **********************



 TOTAL JOB TIME:             6.04 SECONDS

 == MOPAC DONE ==
