 *******************************************************************************
 **                                                                           **
 **                              MOPAC v23.0.3                                **
 **                                                                           **
 *******************************************************************************
 **          Digital Object Identifier (DOI): 10.5281/zenodo.6511958          **
 **    Visit the DOI location for information on how to cite this program.    **
 *******************************************************************************

                              PM7 CALCULATION RESULTS

 *******************************************************************************
 *  CALCULATION DONE:                                Fri Jul 25 19:46:00 2025  *
 *  PM7        - The PM7 Hamiltonian to be used
 *  XYZ        - CARTESIAN COORDINATE SYSTEM TO BE USED
 *  T=         - A TIME OF 172800.0 SECONDS REQUESTED
 *  DUMP=N     - RESTART FILE WRITTEN EVERY 7200.0 SECONDS REQUESTED
 *******************************************************************************
PM7 XYZ

 Lipophilicity_423 - geometry optimisation
   ATOM   CHEMICAL          X               Y               Z
  NUMBER   SYMBOL      (ANGSTROMS)     (ANGSTROMS)     (ANGSTROMS)

     1       C         -0.92095100  *  -1.08714700  *  -1.31646500  *
     2       C         -1.27066700  *  -0.38541000  *  -0.03765700  *
     3       C         -2.47544500  *  -0.47032400  *   0.64314000  *
     4       C         -3.69063500  *  -1.26193500  *   0.24779500  *
     5       C         -4.59746700  *  -0.47731500  *  -0.70765700  *
     6       C         -5.23368500  *   0.69586200  *  -0.02734100  *
     7       O         -4.77791500  *   1.85640900  *  -0.21007900  *
     8       O         -6.30807900  *   0.49805400  *   0.83408000  *
     9       C         -2.38875600  *   0.39761200  *   1.71586500  *
    10       N         -1.18275000  *   0.99435500  *   1.72689600  *
    11       C         -0.48711800  *   0.50879200  *   0.68113900  *
    12       C          0.86379700  *   0.97677900  *   0.33306300  *
    13       C          1.92142000  *   0.16139300  *   0.22313200  *
    14       C          2.02290700  *  -1.27976100  *   0.50477400  *
    15       O          1.10009000  *  -2.01346400  *   0.94661900  *
    16       N          3.35047200  *  -1.74702100  *   0.28302200  *
    17       C          4.08003200  *  -0.59107000  *  -0.11159200  *
    18       C          5.43741000  *  -0.53772700  *  -0.42502400  *
    19       C          5.98758500  *   0.70179800  *  -0.79227200  *
    20       C          5.17904500  *   1.85586100  *  -0.83887800  *
    21       C          3.81291300  *   1.78176800  *  -0.51783700  *
    22       C          3.28541200  *   0.54043700  *  -0.15333600  *
    23       H          0.02217000  *  -0.69064300  *  -1.74498400  *
    24       H         -1.72855800  *  -0.93733600  *  -2.06186800  *
    25       H         -0.80337000  *  -2.17351100  *  -1.12383400  *
    26       H         -4.25993700  *  -1.55355500  *   1.15740600  *
    27       H         -3.36728100  *  -2.20057600  *  -0.25102700  *
    28       H         -5.40137500  *  -1.15112300  *  -1.07358000  *
    29       H         -4.01879000  *  -0.13644700  *  -1.59347600  *
    30       H         -6.73998200  *   1.27903700  *   1.31327700  *
    31       H         -3.17147900  *   0.59782800  *   2.43608700  *
    32       H         -0.85360000  *   1.70495800  *   2.41776900  *
    33       H          1.00140800  *   2.04203300  *   0.20405700  *
    34       H          3.71694200  *  -2.71409600  *   0.42649500  *
    35       H          6.05192800  *  -1.42771300  *  -0.38696900  *
    36       H          7.03854500  *   0.77082300  *  -1.04116100  *
    37       H          5.61319500  *   2.80528500  *  -1.12411300  *
    38       H          3.19256700  *   2.66708800  *  -0.55546600  *



          CARTESIAN COORDINATES 

    NO.       ATOM           X           Y           Z

     1         C         -0.9210     -1.0871     -1.3165
     2         C         -1.2707     -0.3854     -0.0377
     3         C         -2.4754     -0.4703      0.6431
     4         C         -3.6906     -1.2619      0.2478
     5         C         -4.5975     -0.4773     -0.7077
     6         C         -5.2337      0.6959     -0.0273
     7         O         -4.7779      1.8564     -0.2101
     8         O         -6.3081      0.4981      0.8341
     9         C         -2.3888      0.3976      1.7159
    10         N         -1.1827      0.9944      1.7269
    11         C         -0.4871      0.5088      0.6811
    12         C          0.8638      0.9768      0.3331
    13         C          1.9214      0.1614      0.2231
    14         C          2.0229     -1.2798      0.5048
    15         O          1.1001     -2.0135      0.9466
    16         N          3.3505     -1.7470      0.2830
    17         C          4.0800     -0.5911     -0.1116
    18         C          5.4374     -0.5377     -0.4250
    19         C          5.9876      0.7018     -0.7923
    20         C          5.1790      1.8559     -0.8389
    21         C          3.8129      1.7818     -0.5178
    22         C          3.2854      0.5404     -0.1533
    23         H          0.0222     -0.6906     -1.7450
    24         H         -1.7286     -0.9373     -2.0619
    25         H         -0.8034     -2.1735     -1.1238
    26         H         -4.2599     -1.5536      1.1574
    27         H         -3.3673     -2.2006     -0.2510
    28         H         -5.4014     -1.1511     -1.0736
    29         H         -4.0188     -0.1364     -1.5935
    30         H         -6.7400      1.2790      1.3133
    31         H         -3.1715      0.5978      2.4361
    32         H         -0.8536      1.7050      2.4178
    33         H          1.0014      2.0420      0.2041
    34         H          3.7169     -2.7141      0.4265
    35         H          6.0519     -1.4277     -0.3870
    36         H          7.0385      0.7708     -1.0412
    37         H          5.6132      2.8053     -1.1241
    38         H          3.1926      2.6671     -0.5555

 General Reference for PM7:
 "Optimization of Parameters for Semiempirical Methods VI: More Modifications to the 
 NDDO Approximations and Re-optimization of Parameters", J. J. P. Stewart, J. Mol. Mod., 1:32, 19 (2013)
 https://link.springer.com/article/10.1007/s00894-012-1667-x

           Empirical Formula: C17 H16 N2 O3  =    38 atoms



      MOLECULAR POINT GROUP   :   C1  


      RHF CALCULATION, NO. OF DOUBLY OCCUPIED LEVELS = 56


          Geometry optimization using L-BFGS
 CYCLE:     1 TIME:   0.047 TIME LEFT:  2.00D  GRAD.:   303.210 HEAT: -52.87531
 CYCLE:     2 TIME:   0.016 TIME LEFT:  2.00D  GRAD.:   294.458 HEAT: -53.78130
 CYCLE:     3 TIME:   0.031 TIME LEFT:  2.00D  GRAD.:    76.925 HEAT: -69.42110
 CYCLE:     4 TIME:   0.023 TIME LEFT:  2.00D  GRAD.:   294.561 HEAT: -53.78152
 CYCLE:     5 TIME:   0.023 TIME LEFT:  2.00D  GRAD.:    76.907 HEAT: -69.42306
 CYCLE:     6 TIME:   0.023 TIME LEFT:  2.00D  GRAD.:    50.322 HEAT: -70.63707
 CYCLE:     7 TIME:   0.023 TIME LEFT:  2.00D  GRAD.:    49.595 HEAT: -72.47706
 CYCLE:     8 TIME:   0.023 TIME LEFT:  2.00D  GRAD.:    40.607 HEAT: -74.11763
 CYCLE:     9 TIME:   0.023 TIME LEFT:  2.00D  GRAD.:    36.618 HEAT: -75.02489
 CYCLE:    10 TIME:   0.023 TIME LEFT:  2.00D  GRAD.:    52.252 HEAT: -74.99706
 CYCLE:    11 TIME:   0.023 TIME LEFT:  2.00D  GRAD.:    13.091 HEAT: -75.43842
 CYCLE:    12 TIME:   0.016 TIME LEFT:  2.00D  GRAD.:     9.766 HEAT: -75.50374
 CYCLE:    13 TIME:   0.023 TIME LEFT:  2.00D  GRAD.:    10.772 HEAT: -75.63131
 CYCLE:    14 TIME:   0.023 TIME LEFT:  2.00D  GRAD.:    14.964 HEAT: -75.69517
 CYCLE:    15 TIME:   0.016 TIME LEFT:  2.00D  GRAD.:     7.555 HEAT: -75.76094
 CYCLE:    16 TIME:   0.023 TIME LEFT:  2.00D  GRAD.:     6.590 HEAT: -75.79927
 CYCLE:    17 TIME:   0.023 TIME LEFT:  2.00D  GRAD.:     8.709 HEAT: -75.85086
 CYCLE:    18 TIME:   0.016 TIME LEFT:  2.00D  GRAD.:    13.040 HEAT: -75.87947
 CYCLE:    19 TIME:   0.023 TIME LEFT:  2.00D  GRAD.:     5.940 HEAT: -75.91772
 CYCLE:    20 TIME:   0.023 TIME LEFT:  2.00D  GRAD.:     4.691 HEAT: -75.94301
 CYCLE:    21 TIME:   0.016 TIME LEFT:  2.00D  GRAD.:     5.232 HEAT: -75.96254
 CYCLE:    22 TIME:   0.023 TIME LEFT:  2.00D  GRAD.:     6.910 HEAT: -75.99492
 CYCLE:    23 TIME:   0.023 TIME LEFT:  2.00D  GRAD.:    13.616 HEAT: -75.98831
 CYCLE:    24 TIME:   0.016 TIME LEFT:  2.00D  GRAD.:     3.385 HEAT: -76.02157
 CYCLE:    25 TIME:   0.023 TIME LEFT:  2.00D  GRAD.:     2.921 HEAT: -76.02748
 CYCLE:    26 TIME:   0.023 TIME LEFT:  2.00D  GRAD.:     4.715 HEAT: -76.04234
 CYCLE:    27 TIME:   0.016 TIME LEFT:  2.00D  GRAD.:     7.218 HEAT: -76.05757
 CYCLE:    28 TIME:   0.023 TIME LEFT:  2.00D  GRAD.:     4.448 HEAT: -76.07383
 CYCLE:    29 TIME:   0.023 TIME LEFT:  2.00D  GRAD.:     4.407 HEAT: -76.09143
 CYCLE:    30 TIME:   0.016 TIME LEFT:  2.00D  GRAD.:     6.398 HEAT: -76.10360
 CYCLE:    31 TIME:   0.023 TIME LEFT:  2.00D  GRAD.:     4.711 HEAT: -76.11974
 CYCLE:    32 TIME:   0.023 TIME LEFT:  2.00D  GRAD.:     3.491 HEAT: -76.14503
 CYCLE:    33 TIME:   0.016 TIME LEFT:  2.00D  GRAD.:     8.315 HEAT: -76.15010
 CYCLE:    34 TIME:   0.023 TIME LEFT:  2.00D  GRAD.:     3.531 HEAT: -76.16297
 CYCLE:    35 TIME:   0.023 TIME LEFT:  2.00D  GRAD.:     2.612 HEAT: -76.17092
 CYCLE:    36 TIME:   0.016 TIME LEFT:  2.00D  GRAD.:     3.040 HEAT: -76.17873
 CYCLE:    37 TIME:   0.023 TIME LEFT:  2.00D  GRAD.:     4.067 HEAT: -76.19207
 CYCLE:    38 TIME:   0.023 TIME LEFT:  2.00D  GRAD.:     6.924 HEAT: -76.20087
 CYCLE:    39 TIME:   0.023 TIME LEFT:  2.00D  GRAD.:     3.229 HEAT: -76.21648
 CYCLE:    40 TIME:   0.016 TIME LEFT:  2.00D  GRAD.:     3.854 HEAT: -76.22896
 CYCLE:    41 TIME:   0.023 TIME LEFT:  2.00D  GRAD.:     4.766 HEAT: -76.24667
 CYCLE:    42 TIME:   0.023 TIME LEFT:  2.00D  GRAD.:    12.463 HEAT: -76.25329
 CYCLE:    43 TIME:   0.023 TIME LEFT:  2.00D  GRAD.:     4.218 HEAT: -76.28189
 CYCLE:    44 TIME:   0.016 TIME LEFT:  2.00D  GRAD.:     3.609 HEAT: -76.29714
 CYCLE:    45 TIME:   0.023 TIME LEFT:  2.00D  GRAD.:     4.685 HEAT: -76.31113
 CYCLE:    46 TIME:   0.031 TIME LEFT:  2.00D  GRAD.:    19.281 HEAT: -76.29885
 CYCLE:    47 TIME:   0.016 TIME LEFT:  2.00D  GRAD.:     5.638 HEAT: -76.34104
 CYCLE:    48 TIME:   0.023 TIME LEFT:  2.00D  GRAD.:     2.927 HEAT: -76.35122
 CYCLE:    49 TIME:   0.023 TIME LEFT:  2.00D  GRAD.:     3.054 HEAT: -76.36417
 CYCLE:    50 TIME:   0.023 TIME LEFT:  2.00D  GRAD.:     4.306 HEAT: -76.37692
 CYCLE:    51 TIME:   0.023 TIME LEFT:  2.00D  GRAD.:    39.039 HEAT: -76.01765
 CYCLE:    52 TIME:   0.023 TIME LEFT:  2.00D  GRAD.:     3.997 HEAT: -76.40046
 CYCLE:    53 TIME:   0.023 TIME LEFT:  2.00D  GRAD.:     5.002 HEAT: -76.40728
 CYCLE:    54 TIME:   0.023 TIME LEFT:  2.00D  GRAD.:    10.703 HEAT: -76.40199
 CYCLE:    55 TIME:   0.016 TIME LEFT:  2.00D  GRAD.:     3.335 HEAT: -76.42510
 CYCLE:    56 TIME:   0.023 TIME LEFT:  2.00D  GRAD.:     2.087 HEAT: -76.43291
 CYCLE:    57 TIME:   0.023 TIME LEFT:  2.00D  GRAD.:     4.613 HEAT: -76.43276
 CYCLE:    58 TIME:   0.023 TIME LEFT:  2.00D  GRAD.:    10.479 HEAT: -76.44412
 CYCLE:    59 TIME:   0.023 TIME LEFT:  2.00D  GRAD.:     2.671 HEAT: -76.45896
 CYCLE:    60 TIME:   0.023 TIME LEFT:  2.00D  GRAD.:     2.021 HEAT: -76.46731
 CYCLE:    61 TIME:   0.023 TIME LEFT:  2.00D  GRAD.:     3.908 HEAT: -76.47104
 CYCLE:    62 TIME:   0.023 TIME LEFT:  2.00D  GRAD.:    53.471 HEAT: -75.94727
 CYCLE:    63 TIME:   0.023 TIME LEFT:  2.00D  GRAD.:     2.540 HEAT: -76.48253
 CYCLE:    64 TIME:   0.023 TIME LEFT:  2.00D  GRAD.:     2.928 HEAT: -76.49722
 CYCLE:    65 TIME:   0.023 TIME LEFT:  2.00D  GRAD.:     6.017 HEAT: -76.50486
 CYCLE:    66 TIME:   0.016 TIME LEFT:  2.00D  GRAD.:     3.686 HEAT: -76.51515
 CYCLE:    67 TIME:   0.023 TIME LEFT:  2.00D  GRAD.:     2.797 HEAT: -76.52584
 CYCLE:    68 TIME:   0.023 TIME LEFT:  2.00D  GRAD.:     3.678 HEAT: -76.53194
 CYCLE:    69 TIME:   0.016 TIME LEFT:  2.00D  GRAD.:     3.068 HEAT: -76.54052
 CYCLE:    70 TIME:   0.023 TIME LEFT:  2.00D  GRAD.:     4.315 HEAT: -76.54937
 CYCLE:    71 TIME:   0.023 TIME LEFT:  2.00D  GRAD.:     2.645 HEAT: -76.55799
 CYCLE:    72 TIME:   0.016 TIME LEFT:  2.00D  GRAD.:     2.496 HEAT: -76.56350
 CYCLE:    73 TIME:   0.023 TIME LEFT:  2.00D  GRAD.:     3.377 HEAT: -76.56943
 CYCLE:    74 TIME:   0.023 TIME LEFT:  2.00D  GRAD.:     5.216 HEAT: -76.57329
 CYCLE:    75 TIME:   0.016 TIME LEFT:  2.00D  GRAD.:     2.473 HEAT: -76.58021
 CYCLE:    76 TIME:   0.023 TIME LEFT:  2.00D  GRAD.:     2.141 HEAT: -76.58312
 CYCLE:    77 TIME:   0.023 TIME LEFT:  2.00D  GRAD.:     1.894 HEAT: -76.58755
 CYCLE:    78 TIME:   0.023 TIME LEFT:  2.00D  GRAD.:     2.731 HEAT: -76.59303
 CYCLE:    79 TIME:   0.023 TIME LEFT:  2.00D  GRAD.:     7.212 HEAT: -76.59553
 CYCLE:    80 TIME:   0.016 TIME LEFT:  2.00D  GRAD.:     2.310 HEAT: -76.60400
 CYCLE:    81 TIME:   0.023 TIME LEFT:  2.00D  GRAD.:     2.132 HEAT: -76.60689
 CYCLE:    82 TIME:   0.023 TIME LEFT:  2.00D  GRAD.:     3.928 HEAT: -76.61092
 CYCLE:    83 TIME:   0.023 TIME LEFT:  2.00D  GRAD.:     3.497 HEAT: -76.61663
 CYCLE:    84 TIME:   0.023 TIME LEFT:  2.00D  GRAD.:     5.054 HEAT: -76.61688
 CYCLE:    85 TIME:   0.023 TIME LEFT:  2.00D  GRAD.:     2.007 HEAT: -76.62191
 CYCLE:    86 TIME:   0.023 TIME LEFT:  2.00D  GRAD.:     2.300 HEAT: -76.62548
 CYCLE:    87 TIME:   0.016 TIME LEFT:  2.00D  GRAD.:     1.953 HEAT: -76.63007
 CYCLE:    88 TIME:   0.023 TIME LEFT:  2.00D  GRAD.:     4.073 HEAT: -76.63689
 CYCLE:    89 TIME:   0.023 TIME LEFT:  2.00D  GRAD.:     3.104 HEAT: -76.64213
 CYCLE:    90 TIME:   0.023 TIME LEFT:  2.00D  GRAD.:     3.433 HEAT: -76.64611
 CYCLE:    91 TIME:   0.023 TIME LEFT:  2.00D  GRAD.:     3.949 HEAT: -76.64774
 CYCLE:    92 TIME:   0.023 TIME LEFT:  2.00D  GRAD.:     5.262 HEAT: -76.64444
 CYCLE:    93 TIME:   0.016 TIME LEFT:  2.00D  GRAD.:     4.190 HEAT: -76.65481
 CYCLE:    94 TIME:   0.023 TIME LEFT:  2.00D  GRAD.:     7.570 HEAT: -76.65147
 CYCLE:    95 TIME:   0.023 TIME LEFT:  2.00D  GRAD.:    12.902 HEAT: -76.63334
 CYCLE:    96 TIME:   0.023 TIME LEFT:  2.00D  GRAD.:     6.329 HEAT: -76.66454
 CYCLE:    97 TIME:   0.023 TIME LEFT:  2.00D  GRAD.:     7.988 HEAT: -76.65311
 CYCLE:    98 TIME:   0.023 TIME LEFT:  2.00D  GRAD.:    13.817 HEAT: -76.64513
 CYCLE:    99 TIME:   0.023 TIME LEFT:  2.00D  GRAD.:     4.428 HEAT: -76.67535
 CYCLE:   100 TIME:   0.023 TIME LEFT:  2.00D  GRAD.:     1.832 HEAT: -76.68169
 CYCLE:   101 TIME:   0.023 TIME LEFT:  2.00D  GRAD.:     2.600 HEAT: -76.68182
 CYCLE:   102 TIME:   0.023 TIME LEFT:  2.00D  GRAD.:     4.602 HEAT: -76.68664
 CYCLE:   103 TIME:   0.023 TIME LEFT:  2.00D  GRAD.:     1.875 HEAT: -76.69288
 CYCLE:   104 TIME:   0.016 TIME LEFT:  2.00D  GRAD.:     1.555 HEAT: -76.69564
 CYCLE:   105 TIME:   0.031 TIME LEFT:  2.00D  GRAD.:     2.475 HEAT: -76.70000
 CYCLE:   106 TIME:   0.016 TIME LEFT:  2.00D  GRAD.:     2.847 HEAT: -76.70435
 CYCLE:   107 TIME:   0.023 TIME LEFT:  2.00D  GRAD.:     4.135 HEAT: -76.70716
 CYCLE:   108 TIME:   0.023 TIME LEFT:  2.00D  GRAD.:     5.979 HEAT: -76.70763
 CYCLE:   109 TIME:   0.023 TIME LEFT:  2.00D  GRAD.:     1.638 HEAT: -76.71298
 CYCLE:   110 TIME:   0.016 TIME LEFT:  2.00D  GRAD.:     0.937 HEAT: -76.71384

 -------------------------------------------------------------------------------
 PM7 XYZ

 Lipophilicity_423 - geometry optimisation


     HERBERTS TEST WAS SATISFIED IN BFGS                      
     SCF FIELD WAS ACHIEVED                                   


                              PM7 CALCULATION
                                                       MOPAC v23.0.3 Linux
                                                       Fri Jul 25 19:46:02 2025




          FINAL HEAT OF FORMATION =        -76.71384 KCAL/MOL =    -320.97069 KJ/MOL


          COSMO AREA              =        311.01 SQUARE ANGSTROMS
          COSMO VOLUME            =        349.42 CUBIC ANGSTROMS

          GRADIENT NORM           =          0.93700          =       0.15200 PER ATOM
          IONIZATION POTENTIAL    =          8.540699 EV
          HOMO LUMO ENERGIES (EV) =         -8.541 -0.991
          NO. OF FILLED LEVELS    =         56
          MOLECULAR WEIGHT        =        296.3250         POINT GROUP:  C1  

          MOLECULAR DIMENSIONS (Angstroms)

            Atom       Atom       Distance
            H    36    H    30    13.89022
            H    37    H    34     5.59830
            H    24    H    32     4.70607


          SCF CALCULATIONS        =        111

          WALL-CLOCK TIME         =      2.461 SECONDS
          COMPUTATION TIME        =     49.247 SECONDS




   ATOM   CHEMICAL          X               Y               Z
  NUMBER   SYMBOL      (ANGSTROMS)     (ANGSTROMS)     (ANGSTROMS)

     1       C         -0.93335533  *  -1.20090018  *  -1.15246679  *
     2       C         -1.28049898  *  -0.38916194  *   0.02500544  *
     3       C         -2.54493427  *  -0.37215105  *   0.68289963  *
     4       C         -3.73451474  *  -1.16849898  *   0.31617000  *
     5       C         -4.57632295  *  -0.44591532  *  -0.75038688  *
     6       C         -5.28482472  *   0.73049000  *  -0.15998868  *
     7       O         -5.19732894  *   1.89427506  *  -0.44850585  *
     8       O         -6.14802939  *   0.33274587  *   0.81673245  *
     9       C         -2.46099999  *   0.54531512  *   1.73570206  *
    10       N         -1.20227594  *   1.11077383  *   1.72338641  *
    11       C         -0.45278678  *   0.52694084  *   0.69176036  *
    12       C          0.89362890  *   0.95823350  *   0.42249081  *
    13       C          1.94330486  *   0.15146627  *   0.21096626  *
    14       C          1.98863707  *  -1.34045126  *   0.35060501  *
    15       O          1.14601509  *  -2.14609393  *   0.63819231  *
    16       N          3.33102834  *  -1.73888434  *   0.09310525  *
    17       C          4.11744271  *  -0.61522408  *  -0.20395884  *
    18       C          5.46506420  *  -0.55204784  *  -0.52084166  *
    19       C          6.00310799  *   0.71272881  *  -0.78626535  *
    20       C          5.21830508  *   1.86130938  *  -0.73806747  *
    21       C          3.85580727  *   1.79176742  *  -0.41605304  *
    22       C          3.30238024  *   0.55777151  *  -0.14404203  *
    23       H         -0.07609806  *  -0.79335806  *  -1.70684260  *
    24       H         -1.77236557  *  -1.28855941  *  -1.85577167  *
    25       H         -0.65004737  *  -2.22637675  *  -0.84683860  *
    26       H         -4.36020828  *  -1.38692230  *   1.20938365  *
    27       H         -3.42505599  *  -2.16431156  *  -0.07108953  *
    28       H         -5.31542335  *  -1.14650640  *  -1.19226616  *
    29       H         -3.92363603  *  -0.10240914  *  -1.58348490  *
    30       H         -6.63916868  *   1.07794390  *   1.23652346  *
    31       H         -3.20564934  *   0.81894659  *   2.45676140  *
    32       H         -0.84548650  *   1.75657352  *   2.38742554  *
    33       H          1.03546883  *   2.04872912  *   0.38254587  *
    34       H          3.66714568  *  -2.67668854  *   0.13587787  *
    35       H          6.08328913  *  -1.44110100  *  -0.56278720  *
    36       H          7.06093997  *   0.79450161  *  -1.03609377  *
    37       H          5.66480628  *   2.82873878  *  -0.95350048  *
    38       H          3.25264626  *   2.69631827  *  -0.38627372  *

                             CARTESIAN COORDINATES

   1    C       -0.933355334    -1.200900183    -1.152466792
   2    C       -1.280498977    -0.389161943     0.025005442
   3    C       -2.544934267    -0.372151054     0.682899633
   4    C       -3.734514740    -1.168498984     0.316169997
   5    C       -4.576322949    -0.445915320    -0.750386881
   6    C       -5.284824722     0.730489997    -0.159988680
   7    O       -5.197328936     1.894275062    -0.448505849
   8    O       -6.148029387     0.332745874     0.816732453
   9    C       -2.460999989     0.545315115     1.735702055
  10    N       -1.202275941     1.110773829     1.723386407
  11    C       -0.452786783     0.526940843     0.691760360
  12    C        0.893628897     0.958233495     0.422490812
  13    C        1.943304856     0.151466268     0.210966256
  14    C        1.988637072    -1.340451257     0.350605015
  15    O        1.146015092    -2.146093929     0.638192306
  16    N        3.331028338    -1.738884336     0.093105247
  17    C        4.117442708    -0.615224078    -0.203958837
  18    C        5.465064201    -0.552047837    -0.520841655
  19    C        6.003107990     0.712728810    -0.786265347
  20    C        5.218305081     1.861309385    -0.738067467
  21    C        3.855807268     1.791767422    -0.416053043
  22    C        3.302380237     0.557771507    -0.144042032
  23    H       -0.076098064    -0.793358063    -1.706842604
  24    H       -1.772365572    -1.288559407    -1.855771671
  25    H       -0.650047372    -2.226376745    -0.846838598
  26    H       -4.360208279    -1.386922299     1.209383651
  27    H       -3.425055994    -2.164311564    -0.071089533
  28    H       -5.315423348    -1.146506403    -1.192266160
  29    H       -3.923636034    -0.102409135    -1.583484903
  30    H       -6.639168685     1.077943905     1.236523460
  31    H       -3.205649339     0.818946588     2.456761395
  32    H       -0.845486504     1.756573523     2.387425538
  33    H        1.035468828     2.048729120     0.382545871
  34    H        3.667145683    -2.676688539     0.135877871
  35    H        6.083289131    -1.441100999    -0.562787198
  36    H        7.060939974     0.794501608    -1.036093769
  37    H        5.664806280     2.828738782    -0.953500480
  38    H        3.252646257     2.696318275    -0.386273724


           Empirical Formula: C17 H16 N2 O3  =    38 atoms



      MOLECULAR POINT GROUP   :   C1  


                  EIGENVALUES  
 -37.66037 -37.48861 -31.42847 -31.02164 -30.43897 -29.72609 -29.25455 -28.86461
 -27.47848 -26.34663 -25.78635 -25.06605 -24.26130 -23.57968 -22.79053 -21.26085
 -20.58867 -20.42627 -19.91529 -18.87333 -18.50348 -18.06374 -17.66226 -17.07228
 -16.65620 -16.29228 -16.08388 -15.85931 -15.67918 -15.30206 -15.16770 -14.95251
 -14.86927 -14.81184 -14.28406 -14.20103 -13.98890 -13.71088 -13.47896 -13.38747
 -13.19737 -13.12126 -12.86076 -12.79777 -12.39843 -12.20887 -11.99062 -11.84292
 -11.67698 -11.49505 -10.95352 -10.66489  -9.92914  -9.14852  -8.96654  -8.54070
  -0.99113  -0.05721   0.39883   0.93691   1.10140   1.56440   1.81935   1.91350
   2.17470   2.32827   2.45794   2.91509   3.27658   3.57092   3.82397   3.97147
   4.09534   4.33124   4.35175   4.45106   4.60561   4.72833   4.76982   4.82350
   4.89709   4.97512   5.00490   5.05544   5.17697   5.25092   5.29605   5.33015
   5.58438   5.59907   5.66925   5.71670   5.72833   5.86033   5.88878   5.95270
   6.01595   6.02550   6.04017   6.09220   6.40910   6.49813   6.57649   7.13555


              NET ATOMIC CHARGES AND DIPOLE CONTRIBUTIONS

  ATOM NO.   TYPE          CHARGE      No. of ELECS.   s-Pop       p-Pop       
    1          C          -0.433745        4.4337     1.04318     3.39057
    2          C           0.033497        3.9665     1.06225     2.90425
    3          C          -0.135276        4.1353     1.05625     3.07902
    4          C          -0.226730        4.2267     1.04625     3.18048
    5          C          -0.336713        4.3367     1.06800     3.26871
    6          C           0.653231        3.3468     1.12142     2.22535
    7          O          -0.512837        6.5128     1.87603     4.63681
    8          O          -0.570963        6.5710     1.83878     4.73219
    9          C          -0.070319        4.0703     1.08264     2.98768
   10          N          -0.298423        5.2984     1.50563     3.79279
   11          C          -0.048865        4.0489     1.04375     3.00511
   12          C          -0.036122        4.0361     1.08362     2.95250
   13          C          -0.141851        4.1419     1.06994     3.07192
   14          C           0.589332        3.4107     1.08889     2.32178
   15          O          -0.453129        6.4531     1.87707     4.57606
   16          N          -0.580590        5.5806     1.55593     4.02466
   17          C           0.218546        3.7815     1.05952     2.72193
   18          C          -0.259754        4.2598     1.07081     3.18895
   19          C          -0.075281        4.0753     1.08530     2.98998
   20          C          -0.217055        4.2171     1.07704     3.14002
   21          C          -0.077546        4.0775     1.08148     2.99606
   22          C          -0.113524        4.1135     1.05516     3.05837
   23          H           0.154697        0.8453     0.84530
   24          H           0.150009        0.8500     0.84999
   25          H           0.180848        0.8192     0.81915
   26          H           0.162756        0.8372     0.83724
   27          H           0.157530        0.8425     0.84247
   28          H           0.173255        0.8267     0.82674
   29          H           0.181630        0.8184     0.81837
   30          H           0.350770        0.6492     0.64923
   31          H           0.165839        0.8342     0.83416
   32          H           0.306566        0.6934     0.69343
   33          H           0.161810        0.8382     0.83819
   34          H           0.330071        0.6699     0.66993
   35          H           0.164521        0.8355     0.83548
   36          H           0.148305        0.8517     0.85170
   37          H           0.152772        0.8472     0.84723
   38          H           0.152740        0.8473     0.84726
 DIPOLE           X         Y         Z       TOTAL
 POINT-CHG.     1.895     0.485    -0.096     1.958
 HYBRID        -0.036     0.142     0.797     0.810
 SUM            1.859     0.628     0.701     2.083


          ATOMIC ORBITAL ELECTRON POPULATIONS

     Atom    s        px        py        pz   
    1  C   1.04318   1.16673   1.14922   1.07462
    2  C   1.06225   0.96046   0.96400   0.97979
    3  C   1.05625   0.99287   1.05739   1.02877
    4  C   1.04625   1.02552   1.07413   1.08084
    5  C   1.06800   1.11133   1.06185   1.09553
    6  C   1.12142   0.69971   0.82697   0.69867
    7  O   1.87603   1.67005   1.30548   1.66128
    8  O   1.83878   1.61484   1.52377   1.59358
    9  C   1.08264   0.88937   1.02456   1.07375
   10  N   1.50563   1.15837   1.35192   1.28251
   11  C   1.04375   0.94614   1.06168   0.99729
   12  C   1.08362   0.96164   1.07752   0.91334
   13  C   1.06994   0.98676   0.99167   1.09349
   14  C   1.08889   0.74303   0.86278   0.71597
   15  O   1.87707   1.52066   1.57409   1.48131
   16  N   1.55593   1.18385   1.16590   1.67491
   17  C   1.05952   0.93727   0.85982   0.92485
   18  C   1.07081   1.00922   1.06614   1.11359
   19  C   1.08530   1.06842   0.97251   0.94906
   20  C   1.07704   1.00435   1.06575   1.06992
   21  C   1.08148   1.00857   1.03565   0.95184
   22  C   1.05516   0.96885   0.98695   1.10257
   23  H   0.84530
   24  H   0.84999
   25  H   0.81915
   26  H   0.83724
   27  H   0.84247
   28  H   0.82674
   29  H   0.81837
   30  H   0.64923
   31  H   0.83416
   32  H   0.69343
   33  H   0.83819
   34  H   0.66993
   35  H   0.83548
   36  H   0.85170
   37  H   0.84723
   38  H   0.84726

 **********************
 *                    *
 * JOB ENDED NORMALLY *
 *                    *
 **********************



 TOTAL JOB TIME:             2.47 SECONDS

 == MOPAC DONE ==
