 *******************************************************************************
 **                                                                           **
 **                              MOPAC v23.0.3                                **
 **                                                                           **
 *******************************************************************************
 **          Digital Object Identifier (DOI): 10.5281/zenodo.6511958          **
 **    Visit the DOI location for information on how to cite this program.    **
 *******************************************************************************

                              PM7 CALCULATION RESULTS

 *******************************************************************************
 *  CALCULATION DONE:                                Fri Jul 25 17:37:31 2025  *
 *  PM7        - The PM7 Hamiltonian to be used
 *  XYZ        - CARTESIAN COORDINATE SYSTEM TO BE USED
 *  T=         - A TIME OF 172800.0 SECONDS REQUESTED
 *  DUMP=N     - RESTART FILE WRITTEN EVERY 7200.0 SECONDS REQUESTED
 *******************************************************************************
PM7 XYZ

 Lipophilicity_159 - geometry optimisation
   ATOM   CHEMICAL          X               Y               Z
  NUMBER   SYMBOL      (ANGSTROMS)     (ANGSTROMS)     (ANGSTROMS)

     1       O         -1.28786000  *   2.28310400  *  -2.69657000  *
     2       C         -0.40059100  *   2.26982000  *  -1.60740900  *
     3       C          0.44970400  *   0.98632000  *  -1.61615800  *
     4       N          1.37948900  *   0.98067600  *  -0.46469700  *
     5       C          2.27438300  *  -0.19751000  *  -0.51078900  *
     6       C          3.46707200  *   0.06833400  *  -1.44013600  *
     7       N          4.51269900  *  -0.96429400  *  -1.25797600  *
     8       C          4.51778900  *  -2.04921500  *  -2.10786100  *
     9       O          3.62761500  *  -2.18247300  *  -2.99211600  *
    10       C          5.50771600  *  -3.02811500  *  -2.01652900  *
    11       C          6.49085300  *  -2.92794400  *  -1.04416600  *
    12       C          6.47768900  *  -1.85936000  *  -0.14766400  *
    13       C          7.46109200  *  -1.77240400  *   0.84887100  *
    14       C          7.46068000  *  -0.71033800  *   1.74809600  *
    15       C          6.46617100  *   0.26660700  *   1.67864000  *
    16       C          5.47002400  *   0.18779700  *   0.69631200  *
    17       C          5.46389600  *  -0.86815600  *  -0.25280900  *
    18       C          6.47300900  *   1.35976400  *   2.61837700  *
    19       N          6.48381000  *   2.24056700  *   3.37072200  *
    20       C          0.61994700  *   1.00158900  *   0.80306600  *
    21       C         -0.21869600  *   2.28224400  *   0.90562100  *
    22       C         -1.18709700  *   2.40613500  *  -0.28068200  *
    23       N         -2.25676600  *   1.38740900  *  -0.13943000  *
    24       C         -3.54257300  *   1.99813000  *   0.22588500  *
    25       C         -4.53713800  *   0.92814800  *   0.56962300  *
    26       C         -5.64230900  *   0.67521200  *  -0.26049000  *
    27       C         -6.55472600  *  -0.31471700  *   0.10850900  *
    28       O         -7.69969900  *  -0.55916600  *  -0.65707500  *
    29       C         -8.77522600  *  -1.34473000  *  -0.13776700  *
    30       C         -8.22451900  *  -2.53607500  *   0.66231200  *
    31       O         -7.23102500  *  -2.09526500  *   1.59446000  *
    32       C         -6.33400100  *  -1.07386600  *   1.26325400  *
    33       C         -5.22697600  *  -0.79481000  *   2.06617900  *
    34       N         -4.36147300  *   0.19090300  *   1.70439300  *
    35       H         -0.74195900  *   2.43994400  *  -3.50999500  *
    36       H          0.28604700  *   3.14678600  *  -1.68771700  *
    37       H          1.02357800  *   0.96897400  *  -2.56846200  *
    38       H         -0.20655500  *   0.08499700  *  -1.60443800  *
    39       H          1.73096900  *  -1.10994700  *  -0.84469700  *
    40       H          2.67634600  *  -0.42282100  *   0.50175500  *
    41       H          3.88270400  *   1.08377600  *  -1.28086200  *
    42       H          3.11656700  *   0.09330700  *  -2.49281400  *
    43       H          5.51570200  *  -3.86543200  *  -2.70556700  *
    44       H          7.25637000  *  -3.69323300  *  -0.98581800  *
    45       H          8.23519100  *  -2.52556200  *   0.93111100  *
    46       H          8.23391500  *  -0.65435400  *   2.50426300  *
    47       H          4.70795000  *   0.95421000  *   0.70393100  *
    48       H          1.32221000  *   0.99651000  *   1.66610200  *
    49       H         -0.03590100  *   0.10410800  *   0.88700400  *
    50       H          0.46294000  *   3.16061700  *   0.92570800  *
    51       H         -0.78920600  *   2.27709800  *   1.85987200  *
    52       H         -1.60799500  *   3.44004000  *  -0.26452200  *
    53       H         -2.39280700  *   0.84128500  *  -1.02523900  *
    54       H         -3.91462900  *   2.63063300  *  -0.61459800  *
    55       H         -3.41607500  *   2.65120000  *   1.12129500  *
    56       H         -5.80570100  *   1.24865500  *  -1.16588400  *
    57       H         -9.41171300  *  -1.70164600  *  -0.97667600  *
    58       H         -9.39325900  *  -0.71099700  *   0.53545000  *
    59       H         -7.76299800  *  -3.26452200  *  -0.04210100  *
    60       H         -9.04606300  *  -3.04276000  *   1.21163500  *
    61       H         -5.04859000  *  -1.36518900  *   2.96847400  *



          CARTESIAN COORDINATES 

    NO.       ATOM           X           Y           Z

     1         O         -1.2879      2.2831     -2.6966
     2         C         -0.4006      2.2698     -1.6074
     3         C          0.4497      0.9863     -1.6162
     4         N          1.3795      0.9807     -0.4647
     5         C          2.2744     -0.1975     -0.5108
     6         C          3.4671      0.0683     -1.4401
     7         N          4.5127     -0.9643     -1.2580
     8         C          4.5178     -2.0492     -2.1079
     9         O          3.6276     -2.1825     -2.9921
    10         C          5.5077     -3.0281     -2.0165
    11         C          6.4909     -2.9279     -1.0442
    12         C          6.4777     -1.8594     -0.1477
    13         C          7.4611     -1.7724      0.8489
    14         C          7.4607     -0.7103      1.7481
    15         C          6.4662      0.2666      1.6786
    16         C          5.4700      0.1878      0.6963
    17         C          5.4639     -0.8682     -0.2528
    18         C          6.4730      1.3598      2.6184
    19         N          6.4838      2.2406      3.3707
    20         C          0.6199      1.0016      0.8031
    21         C         -0.2187      2.2822      0.9056
    22         C         -1.1871      2.4061     -0.2807
    23         N         -2.2568      1.3874     -0.1394
    24         C         -3.5426      1.9981      0.2259
    25         C         -4.5371      0.9281      0.5696
    26         C         -5.6423      0.6752     -0.2605
    27         C         -6.5547     -0.3147      0.1085
    28         O         -7.6997     -0.5592     -0.6571
    29         C         -8.7752     -1.3447     -0.1378
    30         C         -8.2245     -2.5361      0.6623
    31         O         -7.2310     -2.0953      1.5945
    32         C         -6.3340     -1.0739      1.2633
    33         C         -5.2270     -0.7948      2.0662
    34         N         -4.3615      0.1909      1.7044
    35         H         -0.7420      2.4399     -3.5100
    36         H          0.2860      3.1468     -1.6877
    37         H          1.0236      0.9690     -2.5685
    38         H         -0.2066      0.0850     -1.6044
    39         H          1.7310     -1.1099     -0.8447
    40         H          2.6763     -0.4228      0.5018
    41         H          3.8827      1.0838     -1.2809
    42         H          3.1166      0.0933     -2.4928
    43         H          5.5157     -3.8654     -2.7056
    44         H          7.2564     -3.6932     -0.9858
    45         H          8.2352     -2.5256      0.9311
    46         H          8.2339     -0.6544      2.5043
    47         H          4.7080      0.9542      0.7039
    48         H          1.3222      0.9965      1.6661
    49         H         -0.0359      0.1041      0.8870
    50         H          0.4629      3.1606      0.9257
    51         H         -0.7892      2.2771      1.8599
    52         H         -1.6080      3.4400     -0.2645
    53         H         -2.3928      0.8413     -1.0252
    54         H         -3.9146      2.6306     -0.6146
    55         H         -3.4161      2.6512      1.1213
    56         H         -5.8057      1.2487     -1.1659
    57         H         -9.4117     -1.7016     -0.9767
    58         H         -9.3933     -0.7110      0.5354
    59         H         -7.7630     -3.2645     -0.0421
    60         H         -9.0461     -3.0428      1.2116
    61         H         -5.0486     -1.3652      2.9685

 General Reference for PM7:
 "Optimization of Parameters for Semiempirical Methods VI: More Modifications to the 
 NDDO Approximations and Re-optimization of Parameters", J. J. P. Stewart, J. Mol. Mod., 1:32, 19 (2013)
 https://link.springer.com/article/10.1007/s00894-012-1667-x

           Empirical Formula: C25 H27 N5 O4  =    61 atoms



      MOLECULAR POINT GROUP   :   C1  


      RHF CALCULATION, NO. OF DOUBLY OCCUPIED LEVELS = 88


          Geometry optimization using L-BFGS
 CYCLE:     1 TIME:   0.098 TIME LEFT:  2.00D  GRAD.:   232.391 HEAT: -24.74282
 CYCLE:     2 TIME:   0.055 TIME LEFT:  2.00D  GRAD.:   226.737 HEAT: -25.27625
 CYCLE:     3 TIME:   0.059 TIME LEFT:  2.00D  GRAD.:    81.765 HEAT: -37.74489
 CYCLE:     4 TIME:   0.062 TIME LEFT:  2.00D  GRAD.:   226.987 HEAT: -25.27764
 CYCLE:     5 TIME:   0.059 TIME LEFT:  2.00D  GRAD.:    81.941 HEAT: -37.74355
 CYCLE:     6 TIME:   0.051 TIME LEFT:  2.00D  GRAD.:    62.648 HEAT: -39.54744
 CYCLE:     7 TIME:   0.055 TIME LEFT:  2.00D  GRAD.:    95.128 HEAT: -42.41419
 CYCLE:     8 TIME:   0.055 TIME LEFT:  2.00D  GRAD.:    96.314 HEAT: -43.51704
 CYCLE:     9 TIME:   0.051 TIME LEFT:  2.00D  GRAD.:    45.730 HEAT: -44.42243
 CYCLE:    10 TIME:   0.051 TIME LEFT:  2.00D  GRAD.:    27.006 HEAT: -45.03967
 CYCLE:    11 TIME:   0.051 TIME LEFT:  2.00D  GRAD.:    29.790 HEAT: -45.40621
 CYCLE:    12 TIME:   0.055 TIME LEFT:  2.00D  GRAD.:    27.274 HEAT: -46.08166
 CYCLE:    13 TIME:   0.055 TIME LEFT:  2.00D  GRAD.:    47.948 HEAT: -46.37374
 CYCLE:    14 TIME:   0.051 TIME LEFT:  2.00D  GRAD.:    14.418 HEAT: -46.84617
 CYCLE:    15 TIME:   0.051 TIME LEFT:  2.00D  GRAD.:    10.014 HEAT: -46.95043
 CYCLE:    16 TIME:   0.051 TIME LEFT:  2.00D  GRAD.:    11.623 HEAT: -47.06080
 CYCLE:    17 TIME:   0.051 TIME LEFT:  2.00D  GRAD.:    21.273 HEAT: -47.12904
 CYCLE:    18 TIME:   0.051 TIME LEFT:  2.00D  GRAD.:    10.560 HEAT: -47.21778
 CYCLE:    19 TIME:   0.055 TIME LEFT:  2.00D  GRAD.:     9.564 HEAT: -47.30564
 CYCLE:    20 TIME:   0.051 TIME LEFT:  2.00D  GRAD.:    11.781 HEAT: -47.38163
 CYCLE:    21 TIME:   0.055 TIME LEFT:  2.00D  GRAD.:    12.693 HEAT: -47.54172
 CYCLE:    22 TIME:   0.055 TIME LEFT:  2.00D  GRAD.:    42.482 HEAT: -47.45597
 CYCLE:    23 TIME:   0.051 TIME LEFT:  2.00D  GRAD.:     8.906 HEAT: -47.73978
 CYCLE:    24 TIME:   0.051 TIME LEFT:  2.00D  GRAD.:     7.244 HEAT: -47.79042
 CYCLE:    25 TIME:   0.051 TIME LEFT:  2.00D  GRAD.:    14.735 HEAT: -47.85293
 CYCLE:    26 TIME:   0.055 TIME LEFT:  2.00D  GRAD.:    11.564 HEAT: -47.89479
 CYCLE:    27 TIME:   0.051 TIME LEFT:  2.00D  GRAD.:     9.799 HEAT: -47.92553
 CYCLE:    28 TIME:   0.051 TIME LEFT:  2.00D  GRAD.:     7.454 HEAT: -47.98722
 CYCLE:    29 TIME:   0.051 TIME LEFT:  2.00D  GRAD.:     7.759 HEAT: -48.02041
 CYCLE:    30 TIME:   0.051 TIME LEFT:  2.00D  GRAD.:     7.094 HEAT: -48.06399
 CYCLE:    31 TIME:   0.051 TIME LEFT:  2.00D  GRAD.:     7.559 HEAT: -48.10594
 CYCLE:    32 TIME:   0.055 TIME LEFT:  2.00D  GRAD.:     7.993 HEAT: -48.15647
 CYCLE:    33 TIME:   0.051 TIME LEFT:  2.00D  GRAD.:     8.159 HEAT: -48.20757
 CYCLE:    34 TIME:   0.051 TIME LEFT:  2.00D  GRAD.:     7.302 HEAT: -48.25606
 CYCLE:    35 TIME:   0.051 TIME LEFT:  2.00D  GRAD.:     9.250 HEAT: -48.30476
 CYCLE:    36 TIME:   0.055 TIME LEFT:  2.00D  GRAD.:     6.175 HEAT: -48.34080
 CYCLE:    37 TIME:   0.051 TIME LEFT:  2.00D  GRAD.:     5.969 HEAT: -48.37673
 CYCLE:    38 TIME:   0.051 TIME LEFT:  2.00D  GRAD.:     9.878 HEAT: -48.43669
 CYCLE:    39 TIME:   0.055 TIME LEFT:  2.00D  GRAD.:    17.068 HEAT: -48.45873
 CYCLE:    40 TIME:   0.051 TIME LEFT:  2.00D  GRAD.:     8.543 HEAT: -48.50440
 CYCLE:    41 TIME:   0.051 TIME LEFT:  2.00D  GRAD.:     5.945 HEAT: -48.52754
 CYCLE:    42 TIME:   0.051 TIME LEFT:  2.00D  GRAD.:     6.679 HEAT: -48.56836
 CYCLE:    43 TIME:   0.055 TIME LEFT:  2.00D  GRAD.:    13.114 HEAT: -48.61128
 CYCLE:    44 TIME:   0.055 TIME LEFT:  2.00D  GRAD.:     8.010 HEAT: -48.65843
 CYCLE:    45 TIME:   0.055 TIME LEFT:  2.00D  GRAD.:     6.223 HEAT: -48.70671
 CYCLE:    46 TIME:   0.285 TIME LEFT:  2.00D  GRAD.:     7.773 HEAT: -48.74617
 CYCLE:    47 TIME:   0.055 TIME LEFT:  2.00D  GRAD.:    12.533 HEAT: -48.79849
 CYCLE:    48 TIME:   0.051 TIME LEFT:  2.00D  GRAD.:     7.516 HEAT: -48.85453
 CYCLE:    49 TIME:   0.055 TIME LEFT:  2.00D  GRAD.:     6.221 HEAT: -48.89641
 CYCLE:    50 TIME:   0.051 TIME LEFT:  2.00D  GRAD.:     7.437 HEAT: -48.93633
 CYCLE:    51 TIME:   0.055 TIME LEFT:  2.00D  GRAD.:    11.250 HEAT: -48.98778
 CYCLE:    52 TIME:   0.051 TIME LEFT:  2.00D  GRAD.:     8.071 HEAT: -49.04657
 CYCLE:    53 TIME:   0.059 TIME LEFT:  2.00D  GRAD.:     8.191 HEAT: -49.11773
 CYCLE:    54 TIME:   0.059 TIME LEFT:  2.00D  GRAD.:    15.780 HEAT: -49.16093
 CYCLE:    55 TIME:   0.055 TIME LEFT:  2.00D  GRAD.:     9.872 HEAT: -49.21684
 CYCLE:    56 TIME:   0.051 TIME LEFT:  2.00D  GRAD.:     8.257 HEAT: -49.26436
 CYCLE:    57 TIME:   0.055 TIME LEFT:  2.00D  GRAD.:    10.954 HEAT: -49.33409
 CYCLE:    58 TIME:   0.055 TIME LEFT:  2.00D  GRAD.:    22.423 HEAT: -49.33742
 CYCLE:    59 TIME:   0.059 TIME LEFT:  2.00D  GRAD.:     9.143 HEAT: -49.40433
 CYCLE:    60 TIME:   0.051 TIME LEFT:  2.00D  GRAD.:     5.301 HEAT: -49.43588
 CYCLE:    61 TIME:   0.051 TIME LEFT:  2.00D  GRAD.:     6.725 HEAT: -49.47604
 CYCLE:    62 TIME:   0.062 TIME LEFT:  2.00D  GRAD.:     8.961 HEAT: -49.51744
 CYCLE:    63 TIME:   0.055 TIME LEFT:  2.00D  GRAD.:    13.458 HEAT: -49.54274
 CYCLE:    64 TIME:   0.051 TIME LEFT:  2.00D  GRAD.:     5.192 HEAT: -49.57974
 CYCLE:    65 TIME:   0.051 TIME LEFT:  2.00D  GRAD.:     4.653 HEAT: -49.59854
 CYCLE:    66 TIME:   0.051 TIME LEFT:  2.00D  GRAD.:     5.761 HEAT: -49.62418
 CYCLE:    67 TIME:   0.055 TIME LEFT:  2.00D  GRAD.:    10.667 HEAT: -49.65598
 CYCLE:    68 TIME:   0.051 TIME LEFT:  2.00D  GRAD.:     5.591 HEAT: -49.68979
 CYCLE:    69 TIME:   0.051 TIME LEFT:  2.00D  GRAD.:     4.550 HEAT: -49.70987
 CYCLE:    70 TIME:   0.055 TIME LEFT:  2.00D  GRAD.:     5.804 HEAT: -49.74441
 CYCLE:    71 TIME:   0.055 TIME LEFT:  2.00D  GRAD.:    12.664 HEAT: -49.76715
 CYCLE:    72 TIME:   0.051 TIME LEFT:  2.00D  GRAD.:     8.008 HEAT: -49.79768
 CYCLE:    73 TIME:   0.051 TIME LEFT:  2.00D  GRAD.:     5.174 HEAT: -49.82233
 CYCLE:    74 TIME:   0.051 TIME LEFT:  2.00D  GRAD.:     6.236 HEAT: -49.84051
 CYCLE:    75 TIME:   0.051 TIME LEFT:  2.00D  GRAD.:     7.750 HEAT: -49.86295
 CYCLE:    76 TIME:   0.051 TIME LEFT:  2.00D  GRAD.:     5.769 HEAT: -49.88532
 CYCLE:    77 TIME:   0.055 TIME LEFT:  2.00D  GRAD.:     5.046 HEAT: -49.91814
 CYCLE:    78 TIME:   0.051 TIME LEFT:  2.00D  GRAD.:    11.855 HEAT: -49.92960
 CYCLE:    79 TIME:   0.051 TIME LEFT:  2.00D  GRAD.:     5.063 HEAT: -49.95493
 CYCLE:    80 TIME:   0.051 TIME LEFT:  2.00D  GRAD.:     4.167 HEAT: -49.97149
 CYCLE:    81 TIME:   0.055 TIME LEFT:  2.00D  GRAD.:     4.666 HEAT: -49.98778
 CYCLE:    82 TIME:   0.051 TIME LEFT:  2.00D  GRAD.:     8.381 HEAT: -50.00544
 CYCLE:    83 TIME:   0.051 TIME LEFT:  2.00D  GRAD.:     4.540 HEAT: -50.02382
 CYCLE:    84 TIME:   0.055 TIME LEFT:  2.00D  GRAD.:     3.656 HEAT: -50.03579
 CYCLE:    85 TIME:   0.051 TIME LEFT:  2.00D  GRAD.:     4.135 HEAT: -50.05521
 CYCLE:    86 TIME:   0.051 TIME LEFT:  2.00D  GRAD.:     8.059 HEAT: -50.06551
 CYCLE:    87 TIME:   0.051 TIME LEFT:  2.00D  GRAD.:     4.437 HEAT: -50.07897
 CYCLE:    88 TIME:   0.051 TIME LEFT:  2.00D  GRAD.:     3.860 HEAT: -50.08880
 CYCLE:    89 TIME:   0.051 TIME LEFT:  2.00D  GRAD.:     5.584 HEAT: -50.09654
 CYCLE:    90 TIME:   0.051 TIME LEFT:  2.00D  GRAD.:     4.750 HEAT: -50.10639
 CYCLE:    91 TIME:   0.055 TIME LEFT:  2.00D  GRAD.:     3.763 HEAT: -50.12320
 CYCLE:    92 TIME:   0.051 TIME LEFT:  2.00D  GRAD.:     5.021 HEAT: -50.13887
 CYCLE:    93 TIME:   0.051 TIME LEFT:  2.00D  GRAD.:     5.431 HEAT: -50.15046
 CYCLE:    94 TIME:   0.051 TIME LEFT:  2.00D  GRAD.:     3.471 HEAT: -50.16291
 CYCLE:    95 TIME:   0.051 TIME LEFT:  2.00D  GRAD.:     3.432 HEAT: -50.17995
 CYCLE:    96 TIME:   0.055 TIME LEFT:  2.00D  GRAD.:     4.285 HEAT: -50.19519
 CYCLE:    97 TIME:   0.051 TIME LEFT:  2.00D  GRAD.:     3.556 HEAT: -50.21103
 CYCLE:    98 TIME:   0.059 TIME LEFT:  2.00D  GRAD.:     4.778 HEAT: -50.22381
 CYCLE:    99 TIME:   0.055 TIME LEFT:  2.00D  GRAD.:    10.238 HEAT: -50.23137
 CYCLE:   100 TIME:   0.055 TIME LEFT:  2.00D  GRAD.:     4.822 HEAT: -50.26281
 CYCLE:   101 TIME:   0.051 TIME LEFT:  2.00D  GRAD.:     3.592 HEAT: -50.27317
 CYCLE:   102 TIME:   0.055 TIME LEFT:  2.00D  GRAD.:     4.036 HEAT: -50.29391
 CYCLE:   103 TIME:   0.055 TIME LEFT:  2.00D  GRAD.:     5.142 HEAT: -50.32062
 CYCLE:   104 TIME:   0.059 TIME LEFT:  2.00D  GRAD.:    14.826 HEAT: -50.33322
 CYCLE:   105 TIME:   0.051 TIME LEFT:  2.00D  GRAD.:    36.341 HEAT: -50.27176
 CYCLE:   106 TIME:   0.051 TIME LEFT:  2.00D  GRAD.:     5.370 HEAT: -50.37477
 CYCLE:   107 TIME:   0.051 TIME LEFT:  2.00D  GRAD.:     4.299 HEAT: -50.38167
 CYCLE:   108 TIME:   0.055 TIME LEFT:  2.00D  GRAD.:     4.937 HEAT: -50.39894
 CYCLE:   109 TIME:   0.051 TIME LEFT:  2.00D  GRAD.:     6.840 HEAT: -50.42197
 CYCLE:   110 TIME:   0.055 TIME LEFT:  2.00D  GRAD.:     6.248 HEAT: -50.44431
 CYCLE:   111 TIME:   0.051 TIME LEFT:  2.00D  GRAD.:     7.447 HEAT: -50.47610
 CYCLE:   112 TIME:   0.051 TIME LEFT:  2.00D  GRAD.:     8.190 HEAT: -50.50089
 CYCLE:   113 TIME:   0.051 TIME LEFT:  2.00D  GRAD.:     4.719 HEAT: -50.51724
 CYCLE:   114 TIME:   0.051 TIME LEFT:  2.00D  GRAD.:     5.335 HEAT: -50.53110
 CYCLE:   115 TIME:   0.051 TIME LEFT:  2.00D  GRAD.:     4.068 HEAT: -50.54586
 CYCLE:   116 TIME:   0.055 TIME LEFT:  2.00D  GRAD.:     4.693 HEAT: -50.56490
 CYCLE:   117 TIME:   0.055 TIME LEFT:  2.00D  GRAD.:    15.203 HEAT: -50.55307
 CYCLE:   118 TIME:   0.051 TIME LEFT:  2.00D  GRAD.:     4.249 HEAT: -50.59597
 CYCLE:   119 TIME:   0.059 TIME LEFT:  2.00D  GRAD.:     2.846 HEAT: -50.60409
 CYCLE:   120 TIME:   0.055 TIME LEFT:  2.00D  GRAD.:     4.903 HEAT: -50.61906
 CYCLE:   121 TIME:   0.055 TIME LEFT:  2.00D  GRAD.:     7.318 HEAT: -50.63526
 CYCLE:   122 TIME:   0.051 TIME LEFT:  2.00D  GRAD.:     6.331 HEAT: -50.65380
 CYCLE:   123 TIME:   0.051 TIME LEFT:  2.00D  GRAD.:     5.475 HEAT: -50.67097
 CYCLE:   124 TIME:   0.055 TIME LEFT:  2.00D  GRAD.:     4.763 HEAT: -50.69562
 CYCLE:   125 TIME:   0.055 TIME LEFT:  2.00D  GRAD.:     6.326 HEAT: -50.70834
 CYCLE:   126 TIME:   0.051 TIME LEFT:  2.00D  GRAD.:     5.925 HEAT: -50.72644
 CYCLE:   127 TIME:   0.051 TIME LEFT:  2.00D  GRAD.:     5.206 HEAT: -50.74272
 CYCLE:   128 TIME:   0.051 TIME LEFT:  2.00D  GRAD.:     3.652 HEAT: -50.75452
 CYCLE:   129 TIME:   0.051 TIME LEFT:  2.00D  GRAD.:     3.941 HEAT: -50.76564
 CYCLE:   130 TIME:   0.055 TIME LEFT:  2.00D  GRAD.:     6.589 HEAT: -50.77289
 CYCLE:   131 TIME:   0.051 TIME LEFT:  2.00D  GRAD.:     4.374 HEAT: -50.78701
 CYCLE:   132 TIME:   0.055 TIME LEFT:  2.00D  GRAD.:     3.838 HEAT: -50.79633
 CYCLE:   133 TIME:   0.051 TIME LEFT:  2.00D  GRAD.:     4.590 HEAT: -50.80767
 CYCLE:   134 TIME:   0.051 TIME LEFT:  2.00D  GRAD.:     5.454 HEAT: -50.82317
 CYCLE:   135 TIME:   0.055 TIME LEFT:  2.00D  GRAD.:     6.625 HEAT: -50.82833
 CYCLE:   136 TIME:   0.055 TIME LEFT:  2.00D  GRAD.:     4.933 HEAT: -50.84237
 CYCLE:   137 TIME:   0.051 TIME LEFT:  2.00D  GRAD.:     3.931 HEAT: -50.85221
 CYCLE:   138 TIME:   0.055 TIME LEFT:  2.00D  GRAD.:     3.618 HEAT: -50.86321
 CYCLE:   139 TIME:   0.055 TIME LEFT:  2.00D  GRAD.:     5.036 HEAT: -50.87772
 CYCLE:   140 TIME:   0.051 TIME LEFT:  2.00D  GRAD.:     4.658 HEAT: -50.89527
 CYCLE:   141 TIME:   0.051 TIME LEFT:  2.00D  GRAD.:     3.819 HEAT: -50.91327
 CYCLE:   142 TIME:   0.055 TIME LEFT:  2.00D  GRAD.:     4.570 HEAT: -50.92620
 CYCLE:   143 TIME:   0.051 TIME LEFT:  2.00D  GRAD.:     4.190 HEAT: -50.93931
 CYCLE:   144 TIME:   0.055 TIME LEFT:  2.00D  GRAD.:     3.927 HEAT: -50.95290
 CYCLE:   145 TIME:   0.055 TIME LEFT:  2.00D  GRAD.:     8.849 HEAT: -50.95748
 CYCLE:   146 TIME:   0.051 TIME LEFT:  2.00D  GRAD.:     3.992 HEAT: -50.97556
 CYCLE:   147 TIME:   0.055 TIME LEFT:  2.00D  GRAD.:     4.424 HEAT: -50.98382
 CYCLE:   148 TIME:   0.051 TIME LEFT:  2.00D  GRAD.:     3.648 HEAT: -50.99523
 CYCLE:   149 TIME:   0.059 TIME LEFT:  2.00D  GRAD.:     5.512 HEAT: -50.99939
 CYCLE:   150 TIME:   0.059 TIME LEFT:  2.00D  GRAD.:     6.310 HEAT: -51.00819
 CYCLE:   151 TIME:   0.051 TIME LEFT:  2.00D  GRAD.:     3.317 HEAT: -51.01577
 CYCLE:   152 TIME:   0.051 TIME LEFT:  2.00D  GRAD.:     2.853 HEAT: -51.02007
 CYCLE:   153 TIME:   0.055 TIME LEFT:  2.00D  GRAD.:     4.914 HEAT: -51.01983
 CYCLE:   154 TIME:   0.051 TIME LEFT:  2.00D  GRAD.:     2.792 HEAT: -51.02945
 CYCLE:   155 TIME:   0.059 TIME LEFT:  2.00D  GRAD.:     4.615 HEAT: -51.03003
 CYCLE:   156 TIME:   0.059 TIME LEFT:  2.00D  GRAD.:     2.784 HEAT: -51.04057
 CYCLE:   157 TIME:   0.059 TIME LEFT:  2.00D  GRAD.:     2.346 HEAT: -51.04534
 CYCLE:   158 TIME:   0.055 TIME LEFT:  2.00D  GRAD.:     2.670 HEAT: -51.04979
 CYCLE:   159 TIME:   0.055 TIME LEFT:  2.00D  GRAD.:     4.417 HEAT: -51.05964
 CYCLE:   160 TIME:   0.051 TIME LEFT:  2.00D  GRAD.:     3.189 HEAT: -51.06523
 CYCLE:   161 TIME:   0.051 TIME LEFT:  2.00D  GRAD.:     2.845 HEAT: -51.07010
 CYCLE:   162 TIME:   0.055 TIME LEFT:  2.00D  GRAD.:     3.390 HEAT: -51.07918
 CYCLE:   163 TIME:   0.055 TIME LEFT:  2.00D  GRAD.:     6.461 HEAT: -51.07970
 CYCLE:   164 TIME:   0.051 TIME LEFT:  2.00D  GRAD.:     2.322 HEAT: -51.08793
 CYCLE:   165 TIME:   0.055 TIME LEFT:  2.00D  GRAD.:     2.126 HEAT: -51.09077
 CYCLE:   166 TIME:   0.051 TIME LEFT:  2.00D  GRAD.:     2.331 HEAT: -51.09466
 CYCLE:   167 TIME:   0.055 TIME LEFT:  2.00D  GRAD.:     5.796 HEAT: -51.10124
 CYCLE:   168 TIME:   0.055 TIME LEFT:  2.00D  GRAD.:     3.753 HEAT: -51.10602
 CYCLE:   169 TIME:   0.051 TIME LEFT:  2.00D  GRAD.:     2.513 HEAT: -51.10884
 CYCLE:   170 TIME:   0.051 TIME LEFT:  2.00D  GRAD.:     1.658 HEAT: -51.11341
 CYCLE:   171 TIME:   0.055 TIME LEFT:  2.00D  GRAD.:     2.604 HEAT: -51.11843
 CYCLE:   172 TIME:   0.055 TIME LEFT:  2.00D  GRAD.:     3.583 HEAT: -51.12524
 CYCLE:   173 TIME:   0.059 TIME LEFT:  2.00D  GRAD.:     3.825 HEAT: -51.13115
 CYCLE:   174 TIME:   0.051 TIME LEFT:  2.00D  GRAD.:     2.579 HEAT: -51.13781
 CYCLE:   175 TIME:   0.055 TIME LEFT:  2.00D  GRAD.:     3.161 HEAT: -51.14389
 CYCLE:   176 TIME:   0.055 TIME LEFT:  2.00D  GRAD.:     4.169 HEAT: -51.14911
 CYCLE:   177 TIME:   0.055 TIME LEFT:  2.00D  GRAD.:     2.632 HEAT: -51.15571
 CYCLE:   178 TIME:   0.055 TIME LEFT:  2.00D  GRAD.:     2.705 HEAT: -51.16085
 CYCLE:   179 TIME:   0.051 TIME LEFT:  2.00D  GRAD.:     3.983 HEAT: -51.16716
 CYCLE:   180 TIME:   0.051 TIME LEFT:  2.00D  GRAD.:     3.125 HEAT: -51.17490
 CYCLE:   181 TIME:   0.055 TIME LEFT:  2.00D  GRAD.:     5.862 HEAT: -51.18263
 CYCLE:   182 TIME:   0.051 TIME LEFT:  2.00D  GRAD.:     4.563 HEAT: -51.18882
 CYCLE:   183 TIME:   0.051 TIME LEFT:  2.00D  GRAD.:     3.425 HEAT: -51.19486
 CYCLE:   184 TIME:   0.059 TIME LEFT:  2.00D  GRAD.:     2.771 HEAT: -51.20117
 CYCLE:   185 TIME:   0.055 TIME LEFT:  2.00D  GRAD.:     3.130 HEAT: -51.21111
 CYCLE:   186 TIME:   0.055 TIME LEFT:  2.00D  GRAD.:     2.778 HEAT: -51.21632
 CYCLE:   187 TIME:   0.059 TIME LEFT:  2.00D  GRAD.:     3.288 HEAT: -51.22092
 CYCLE:   188 TIME:   0.051 TIME LEFT:  2.00D  GRAD.:     2.380 HEAT: -51.22583
 CYCLE:   189 TIME:   0.055 TIME LEFT:  2.00D  GRAD.:     2.232 HEAT: -51.22944
 CYCLE:   190 TIME:   0.059 TIME LEFT:  2.00D  GRAD.:     4.013 HEAT: -51.23412
 CYCLE:   191 TIME:   0.051 TIME LEFT:  2.00D  GRAD.:     2.494 HEAT: -51.23880
 CYCLE:   192 TIME:   0.055 TIME LEFT:  2.00D  GRAD.:     2.167 HEAT: -51.23992
 CYCLE:   193 TIME:   0.051 TIME LEFT:  2.00D  GRAD.:     3.455 HEAT: -51.24547
 CYCLE:   194 TIME:   0.059 TIME LEFT:  2.00D  GRAD.:     2.762 HEAT: -51.25136
 CYCLE:   195 TIME:   0.051 TIME LEFT:  2.00D  GRAD.:     2.302 HEAT: -51.25670
 CYCLE:   196 TIME:   0.055 TIME LEFT:  2.00D  GRAD.:     2.948 HEAT: -51.26333
 CYCLE:   197 TIME:   0.059 TIME LEFT:  2.00D  GRAD.:     4.520 HEAT: -51.26651
 CYCLE:   198 TIME:   0.051 TIME LEFT:  2.00D  GRAD.:     2.753 HEAT: -51.27128
 CYCLE:   199 TIME:   0.051 TIME LEFT:  2.00D  GRAD.:     2.627 HEAT: -51.27722
 CYCLE:   200 TIME:   0.051 TIME LEFT:  2.00D  GRAD.:     2.972 HEAT: -51.28370
 CYCLE:   201 TIME:   0.055 TIME LEFT:  2.00D  GRAD.:     6.041 HEAT: -51.28988
 CYCLE:   202 TIME:   0.051 TIME LEFT:  2.00D  GRAD.:     2.305 HEAT: -51.29782
 CYCLE:   203 TIME:   0.051 TIME LEFT:  2.00D  GRAD.:     1.942 HEAT: -51.30125
 CYCLE:   204 TIME:   0.055 TIME LEFT:  2.00D  GRAD.:     2.366 HEAT: -51.30613
 CYCLE:   205 TIME:   0.051 TIME LEFT:  2.00D  GRAD.:     4.960 HEAT: -51.30909
 CYCLE:   206 TIME:   0.051 TIME LEFT:  2.00D  GRAD.:     2.290 HEAT: -51.31388
 CYCLE:   207 TIME:   0.055 TIME LEFT:  2.00D  GRAD.:     1.824 HEAT: -51.31691
 CYCLE:   208 TIME:   0.051 TIME LEFT:  2.00D  GRAD.:     2.403 HEAT: -51.31988
 CYCLE:   209 TIME:   0.055 TIME LEFT:  2.00D  GRAD.:     3.878 HEAT: -51.32552
 CYCLE:   210 TIME:   0.051 TIME LEFT:  2.00D  GRAD.:     3.152 HEAT: -51.32941
 CYCLE:   211 TIME:   0.051 TIME LEFT:  2.00D  GRAD.:     2.069 HEAT: -51.33232
 CYCLE:   212 TIME:   0.051 TIME LEFT:  2.00D  GRAD.:     2.074 HEAT: -51.33573
 CYCLE:   213 TIME:   0.059 TIME LEFT:  2.00D  GRAD.:     2.335 HEAT: -51.33919
 CYCLE:   214 TIME:   0.059 TIME LEFT:  2.00D  GRAD.:     2.155 HEAT: -51.34328
 CYCLE:   215 TIME:   0.055 TIME LEFT:  2.00D  GRAD.:     2.245 HEAT: -51.34704
 CYCLE:   216 TIME:   0.059 TIME LEFT:  2.00D  GRAD.:     3.698 HEAT: -51.34924
 CYCLE:   217 TIME:   0.055 TIME LEFT:  2.00D  GRAD.:     8.246 HEAT: -51.34754
 CYCLE:   218 TIME:   0.051 TIME LEFT:  2.00D  GRAD.:     4.330 HEAT: -51.36040
 CYCLE:   219 TIME:   0.059 TIME LEFT:  2.00D  GRAD.:     1.892 HEAT: -51.36078
 CYCLE:   220 TIME:   0.059 TIME LEFT:  2.00D  GRAD.:     3.345 HEAT: -51.36472
 CYCLE:   221 TIME:   0.051 TIME LEFT:  2.00D  GRAD.:     2.933 HEAT: -51.36848
 CYCLE:   222 TIME:   0.051 TIME LEFT:  2.00D  GRAD.:     1.988 HEAT: -51.37165
 CYCLE:   223 TIME:   0.062 TIME LEFT:  2.00D  GRAD.:     2.382 HEAT: -51.37435
 CYCLE:   224 TIME:   0.055 TIME LEFT:  2.00D  GRAD.:     3.428 HEAT: -51.37767
 CYCLE:   225 TIME:   0.051 TIME LEFT:  2.00D  GRAD.:     4.934 HEAT: -51.37850
 CYCLE:   226 TIME:   0.051 TIME LEFT:  2.00D  GRAD.:     1.297 HEAT: -51.38121
 CYCLE:   227 TIME:   0.055 TIME LEFT:  2.00D  GRAD.:     1.196 HEAT: -51.38204
 CYCLE:   228 TIME:   0.055 TIME LEFT:  2.00D  GRAD.:     1.224 HEAT: -51.38328
 CYCLE:   229 TIME:   0.062 TIME LEFT:  2.00D  GRAD.:     3.503 HEAT: -51.38633
 CYCLE:   230 TIME:   0.051 TIME LEFT:  2.00D  GRAD.:     1.650 HEAT: -51.38836
 CYCLE:   231 TIME:   0.051 TIME LEFT:  2.00D  GRAD.:     1.009 HEAT: -51.38910
 CYCLE:   232 TIME:   0.062 TIME LEFT:  2.00D  GRAD.:     0.969 HEAT: -51.38985

 -------------------------------------------------------------------------------
 PM7 XYZ

 Lipophilicity_159 - geometry optimisation


     HERBERTS TEST WAS SATISFIED IN BFGS                      
     SCF FIELD WAS ACHIEVED                                   


                              PM7 CALCULATION
                                                       MOPAC v23.0.3 Linux
                                                       Fri Jul 25 17:37:43 2025




          FINAL HEAT OF FORMATION =        -51.38985 KCAL/MOL =    -215.01515 KJ/MOL


          COSMO AREA              =        468.03 SQUARE ANGSTROMS
          COSMO VOLUME            =        543.24 CUBIC ANGSTROMS

          GRADIENT NORM           =          0.96916          =       0.12409 PER ATOM
          IONIZATION POTENTIAL    =          8.835572 EV
          HOMO LUMO ENERGIES (EV) =         -8.836 -1.491
          NO. OF FILLED LEVELS    =         88
          MOLECULAR WEIGHT        =        461.5194         POINT GROUP:  C1  

          MOLECULAR DIMENSIONS (Angstroms)

            Atom       Atom       Distance
            H    58    H    45    16.86908
            H    43    N    19     8.66541
            H    35    H    60     7.44828


          SCF CALCULATIONS        =        233

          WALL-CLOCK TIME         =     12.680 SECONDS
          COMPUTATION TIME        =          4 MINUTES AND 12.767 SECONDS




   ATOM   CHEMICAL          X               Y               Z
  NUMBER   SYMBOL      (ANGSTROMS)     (ANGSTROMS)     (ANGSTROMS)

     1       O         -1.49610450  *   2.25744520  *  -2.60439103  *
     2       C         -0.45695661  *   2.24768912  *  -1.64048328  *
     3       C          0.24384699  *   0.87354709  *  -1.63552220  *
     4       N          1.26129919  *   0.88899771  *  -0.55672449  *
     5       C          2.07990615  *  -0.34415439  *  -0.59707946  *
     6       C          3.24329715  *  -0.06307146  *  -1.58412581  *
     7       N          4.33410605  *  -1.03181809  *  -1.38884380  *
     8       C          4.40782683  *  -2.12239904  *  -2.29290473  *
     9       O          3.57760491  *  -2.18951413  *  -3.17455513  *
    10       C          5.49140874  *  -3.07876776  *  -2.09073747  *
    11       C          6.37039805  *  -2.94288673  *  -1.07888991  *
    12       C          6.25995216  *  -1.84076466  *  -0.15854438  *
    13       C          7.16427466  *  -1.70188954  *   0.90866925  *
    14       C          7.05237503  *  -0.65530586  *   1.80172066  *
    15       C          6.01790491  *   0.28407602  *   1.63053405  *
    16       C          5.11672115  *   0.18317329  *   0.58557176  *
    17       C          5.22224483  *  -0.89117121  *  -0.33196750  *
    18       C          5.89586203  *   1.35784751  *   2.55916882  *
    19       N          5.79320094  *   2.22770931  *   3.31532586  *
    20       C          0.60848601  *   1.06022523  *   0.76818726  *
    21       C         -0.09110574  *   2.43031202  *   0.81404419  *
    22       C         -1.16375580  *   2.53327221  *  -0.28986599  *
    23       N         -2.22381175  *   1.52246933  *  -0.06039756  *
    24       C         -3.24575294  *   2.00085152  *   0.89754583  *
    25       C         -4.33659369  *   0.96107720  *   1.01062249  *
    26       C         -5.11310479  *   0.59772641  *  -0.10065516  *
    27       C         -6.09493261  *  -0.36928041  *   0.09476625  *
    28       O         -6.83785583  *  -0.74415004  *  -0.98010956  *
    29       C         -8.01574965  *  -1.47347208  *  -0.62107874  *
    30       C         -7.69209197  *  -2.51910703  *   0.44097149  *
    31       O         -7.22319715  *  -1.88031166  *   1.63018140  *
    32       C         -6.26962896  *  -0.93933097  *   1.36536300  *
    33       C         -5.46380551  *  -0.50254521  *   2.42309979  *
    34       N         -4.51819622  *   0.43638806  *   2.24031368  *
    35       H         -1.17610691  *   1.95734024  *  -3.47431067  *
    36       H          0.25455847  *   3.06389211  *  -1.89028806  *
    37       H          0.75084976  *   0.69984542  *  -2.60677777  *
    38       H         -0.51304877  *   0.06672587  *  -1.50983726  *
    39       H          1.51718048  *  -1.24766032  *  -0.91218253  *
    40       H          2.48390067  *  -0.57180978  *   0.41201117  *
    41       H          3.61908746  *   0.97833706  *  -1.46094608  *
    42       H          2.87588589  *  -0.12986201  *  -2.63740704  *
    43       H          5.52712502  *  -3.89533292  *  -2.81180231  *
    44       H          7.18187831  *  -3.65787587  *  -0.92587499  *
    45       H          7.96228041  *  -2.43782701  *   1.02704558  *
    46       H          7.74963307  *  -0.55020899  *   2.63092096  *
    47       H          4.32749304  *   0.93098597  *   0.47358973  *
    48       H          1.39131564  *   1.01533863  *   1.55384944  *
    49       H         -0.13884829  *   0.26160813  *   0.98262685  *
    50       H          0.65101725  *   3.24004188  *   0.68753865  *
    51       H         -0.55222849  *   2.57149359  *   1.80861460  *
    52       H         -1.58036227  *   3.57231183  *  -0.31811140  *
    53       H         -2.64931921  *   1.25658561  *  -0.95197174  *
    54       H         -3.69427133  *   2.98148307  *   0.61779234  *
    55       H         -2.74837701  *   2.14076546  *   1.89037204  *
    56       H         -4.96397608  *   1.04943523  *  -1.07662403  *
    57       H         -8.33016293  *  -1.91389804  *  -1.58434270  *
    58       H         -8.77128478  *  -0.74538925  *  -0.27274930  *
    59       H         -6.91837369  *  -3.23225815  *   0.10172042  *
    60       H         -8.58195374  *  -3.06967009  *   0.79501540  *
    61       H         -5.57176816  *  -0.90718669  *   3.43407623  *

                             CARTESIAN COORDINATES

   1    O       -1.496104503     2.257445196    -2.604391028
   2    C       -0.456956608     2.247689121    -1.640483280
   3    C        0.243846988     0.873547092    -1.635522200
   4    N        1.261299193     0.888997713    -0.556724492
   5    C        2.079906149    -0.344154393    -0.597079465
   6    C        3.243297152    -0.063071459    -1.584125815
   7    N        4.334106046    -1.031818086    -1.388843799
   8    C        4.407826830    -2.122399036    -2.292904732
   9    O        3.577604907    -2.189514129    -3.174555128
  10    C        5.491408737    -3.078767759    -2.090737473
  11    C        6.370398046    -2.942886734    -1.078889909
  12    C        6.259952164    -1.840764658    -0.158544382
  13    C        7.164274662    -1.701889545     0.908669255
  14    C        7.052375027    -0.655305860     1.801720655
  15    C        6.017904915     0.284076020     1.630534051
  16    C        5.116721148     0.183173292     0.585571756
  17    C        5.222244831    -0.891171206    -0.331967502
  18    C        5.895862028     1.357847506     2.559168824
  19    N        5.793200942     2.227709307     3.315325858
  20    C        0.608486013     1.060225225     0.768187264
  21    C       -0.091105740     2.430312022     0.814044187
  22    C       -1.163755800     2.533272207    -0.289865994
  23    N       -2.223811750     1.522469333    -0.060397564
  24    C       -3.245752941     2.000851519     0.897545832
  25    C       -4.336593687     0.961077203     1.010622487
  26    C       -5.113104795     0.597726407    -0.100655162
  27    C       -6.094932612    -0.369280410     0.094766251
  28    O       -6.837855830    -0.744150037    -0.980109561
  29    C       -8.015749645    -1.473472079    -0.621078744
  30    C       -7.692091967    -2.519107028     0.440971485
  31    O       -7.223197151    -1.880311658     1.630181398
  32    C       -6.269628962    -0.939330968     1.365363003
  33    C       -5.463805511    -0.502545209     2.423099787
  34    N       -4.518196222     0.436388064     2.240313677
  35    H       -1.176106909     1.957340242    -3.474310668
  36    H        0.254558473     3.063892113    -1.890288059
  37    H        0.750849759     0.699845418    -2.606777773
  38    H       -0.513048767     0.066725875    -1.509837260
  39    H        1.517180480    -1.247660317    -0.912182530
  40    H        2.483900669    -0.571809777     0.412011174
  41    H        3.619087462     0.978337061    -1.460946076
  42    H        2.875885886    -0.129862010    -2.637407041
  43    H        5.527125016    -3.895332917    -2.811802311
  44    H        7.181878310    -3.657875868    -0.925874992
  45    H        7.962280409    -2.437827013     1.027045577
  46    H        7.749633071    -0.550208995     2.630920962
  47    H        4.327493038     0.930985967     0.473589725
  48    H        1.391315645     1.015338625     1.553849437
  49    H       -0.138848294     0.261608133     0.982626852
  50    H        0.651017251     3.240041884     0.687538652
  51    H       -0.552228494     2.571493594     1.808614597
  52    H       -1.580362272     3.572311832    -0.318111395
  53    H       -2.649319209     1.256585606    -0.951971742
  54    H       -3.694271327     2.981483071     0.617792343
  55    H       -2.748377012     2.140765459     1.890372043
  56    H       -4.963976084     1.049435232    -1.076624030
  57    H       -8.330162933    -1.913898045    -1.584342701
  58    H       -8.771284778    -0.745389252    -0.272749299
  59    H       -6.918373690    -3.232258150     0.101720415
  60    H       -8.581953743    -3.069670093     0.795015397
  61    H       -5.571768161    -0.907186690     3.434076234


           Empirical Formula: C25 H27 N5 O4  =    61 atoms



      MOLECULAR POINT GROUP   :   C1  


                  EIGENVALUES  
 -37.54065 -35.81210 -35.53522 -35.17512 -34.82688 -31.85399 -31.53208 -30.60749
 -30.08654 -29.67036 -29.51258 -28.15880 -27.83686 -26.87422 -26.76348 -26.40325
 -26.24558 -25.80403 -25.59685 -24.14364 -23.43099 -22.72348 -22.50247 -22.32745
 -22.02386 -21.87642 -21.43778 -20.75765 -20.09205 -19.99361 -18.96076 -18.55634
 -18.45305 -17.92667 -17.69635 -17.57591 -17.45700 -17.19961 -16.90294 -16.39530
 -16.21628 -16.17855 -16.11194 -15.83443 -15.61212 -15.49106 -15.43858 -15.34251
 -15.26355 -15.02603 -15.01692 -14.97910 -14.88703 -14.60644 -14.53913 -14.38677
 -14.19767 -13.97500 -13.92601 -13.76530 -13.71057 -13.68430 -13.54502 -13.47895
 -13.31821 -13.15545 -13.01436 -12.91692 -12.60169 -12.56385 -12.44570 -12.23071
 -12.04215 -11.97311 -11.88719 -11.69566 -11.64419 -11.58957 -11.06165 -10.84535
 -10.75598 -10.30526 -10.18691  -9.91316  -9.28417  -9.18683  -9.05845  -8.83557
  -1.49101  -0.64153  -0.12802  -0.05711   0.07301   0.87177   0.91479   1.10631
   1.16601   1.63878   1.74388   2.12757   2.26888   2.37078   2.60909   2.87200
   3.07429   3.13637   3.24564   3.26113   3.30888   3.38980   3.45578   3.57970
   3.66995   3.76014   3.77934   3.82955   3.86066   3.88238   4.04599   4.07658
   4.29432   4.30283   4.33002   4.36521   4.43528   4.53571   4.59834   4.63227
   4.70829   4.75787   4.95752   5.08414   5.09524   5.14905   5.16249   5.19838
   5.21464   5.29806   5.32148   5.36315   5.40947   5.44558   5.48707   5.49188
   5.50688   5.54492   5.58799   5.62932   5.68067   5.70811   5.74158   5.77148
   5.86648   5.87341   5.91245   5.95069   6.05201   6.10344   6.19395   6.33509
   6.39553   6.52375   7.10573


              NET ATOMIC CHARGES AND DIPOLE CONTRIBUTIONS

  ATOM NO.   TYPE          CHARGE      No. of ELECS.   s-Pop       p-Pop       
    1          O          -0.583964        6.5840     1.84545     4.73852
    2          C           0.128132        3.8719     1.09927     2.77260
    3          C          -0.170275        4.1703     1.07824     3.09203
    4          N          -0.425137        5.4251     1.69165     3.73349
    5          C          -0.140385        4.1404     1.07386     3.06652
    6          C          -0.090956        4.0910     1.07479     3.01617
    7          N          -0.430472        5.4305     1.56519     3.86528
    8          C           0.577643        3.4224     1.07900     2.34336
    9          O          -0.500012        6.5000     1.88110     4.61891
   10          C          -0.292163        4.2922     1.09255     3.19961
   11          C          -0.041957        4.0420     1.08974     2.95222
   12          C          -0.137568        4.1376     1.05355     3.08401
   13          C          -0.070745        4.0707     1.08684     2.98391
   14          C          -0.196606        4.1966     1.07774     3.11887
   15          C           0.049530        3.9505     1.04325     2.90723
   16          C          -0.228915        4.2289     1.08166     3.14726
   17          C           0.237034        3.7630     1.05766     2.70531
   18          C           0.103013        3.8970     1.10932     2.78767
   19          N          -0.221279        5.2213     1.83122     3.39006
   20          C          -0.097015        4.0970     1.07065     3.02636
   21          C          -0.292504        4.2925     1.06715     3.22536
   22          C           0.029047        3.9710     1.07536     2.89559
   23          N          -0.546637        5.5466     1.66853     3.87811
   24          C          -0.114432        4.1144     1.06653     3.04790
   25          C           0.190104        3.8099     1.07854     2.73136
   26          C          -0.299818        4.2998     1.08084     3.21897
   27          C           0.184939        3.8151     1.07988     2.73518
   28          O          -0.288349        6.2883     1.87348     4.41487
   29          C          -0.097969        4.0980     1.09918     2.99879
   30          C          -0.101192        4.1012     1.09740     3.00379
   31          O          -0.283728        6.2837     1.87600     4.40773
   32          C          -0.003014        4.0030     1.07893     2.92408
   33          C           0.029243        3.9708     1.09122     2.87954
   34          N          -0.382428        5.3824     1.74052     3.64191
   35          H           0.324209        0.6758     0.67579
   36          H           0.128253        0.8717     0.87175
   37          H           0.136081        0.8639     0.86392
   38          H           0.149442        0.8506     0.85056
   39          H           0.140794        0.8592     0.85921
   40          H           0.143733        0.8563     0.85627
   41          H           0.164194        0.8358     0.83581
   42          H           0.178938        0.8211     0.82106
   43          H           0.190293        0.8097     0.80971
   44          H           0.161450        0.8385     0.83855
   45          H           0.160538        0.8395     0.83946
   46          H           0.170482        0.8295     0.82952
   47          H           0.193035        0.8070     0.80696
   48          H           0.130353        0.8696     0.86965
   49          H           0.148063        0.8519     0.85194
   50          H           0.145785        0.8542     0.85421
   51          H           0.147795        0.8522     0.85220
   52          H           0.123310        0.8767     0.87669
   53          H           0.277125        0.7229     0.72288
   54          H           0.130827        0.8692     0.86917
   55          H           0.173762        0.8262     0.82624
   56          H           0.187101        0.8129     0.81290
   57          H           0.159372        0.8406     0.84063
   58          H           0.149861        0.8501     0.85014
   59          H           0.149803        0.8502     0.85020
   60          H           0.158647        0.8414     0.84135
   61          H           0.185588        0.8144     0.81441
 DIPOLE           X         Y         Z       TOTAL
 POINT-CHG.     0.786    -2.713    -0.658     2.900
 HYBRID        -1.709    -0.862    -1.989     2.760
 SUM           -0.923    -3.575    -2.647     4.543


          ATOMIC ORBITAL ELECTRON POPULATIONS

     Atom    s        px        py        pz   
    1  O   1.84545   1.46757   1.91952   1.35143
    2  C   1.09927   0.88715   1.01657   0.86888
    3  C   1.07824   1.01606   1.06648   1.00949
    4  N   1.69165   1.26358   1.36719   1.10271
    5  C   1.07386   1.00142   0.96730   1.09780
    6  C   1.07479   0.90090   0.99187   1.12340
    7  N   1.56519   1.29009   1.29136   1.28383
    8  C   1.07900   0.81954   0.77045   0.75338
    9  O   1.88110   1.46204   1.75386   1.40301
   10  C   1.09255   1.02569   1.09290   1.08102
   11  C   1.08974   1.01092   0.99154   0.94976
   12  C   1.05355   1.02802   1.01958   1.03642
   13  C   1.08684   1.01269   1.01410   0.95712
   14  C   1.07774   1.04431   1.00107   1.07348
   15  C   1.04325   0.99407   0.95230   0.96085
   16  C   1.08166   1.08218   1.06111   1.00397
   17  C   1.05766   0.88726   0.95608   0.86196
   18  C   1.10932   0.93070   0.92771   0.92925
   19  N   1.83122   1.08440   1.16275   1.14291
   20  C   1.07065   1.06789   1.04831   0.91016
   21  C   1.06715   1.06948   1.06365   1.09223
   22  C   1.07536   0.93618   0.99302   0.96639
   23  N   1.66853   1.19495   1.43021   1.25295
   24  C   1.06653   0.95803   1.02357   1.06630
   25  C   1.07854   0.93146   0.93157   0.86833
   26  C   1.08084   1.04963   1.06803   1.10132
   27  C   1.07988   0.91892   0.93924   0.87702
   28  O   1.87348   1.39463   1.70992   1.31032
   29  C   1.09918   0.89743   1.01640   1.08496
   30  C   1.09740   1.10989   0.99783   0.89607
   31  O   1.87600   1.56259   1.53884   1.30630
   32  C   1.07893   0.96621   0.96131   0.99657
   33  C   1.09122   0.89666   0.93187   1.05101
   34  N   1.74052   1.21777   1.14534   1.27880
   35  H   0.67579
   36  H   0.87175
   37  H   0.86392
   38  H   0.85056
   39  H   0.85921
   40  H   0.85627
   41  H   0.83581
   42  H   0.82106
   43  H   0.80971
   44  H   0.83855
   45  H   0.83946
   46  H   0.82952
   47  H   0.80696
   48  H   0.86965
   49  H   0.85194
   50  H   0.85421
   51  H   0.85220
   52  H   0.87669
   53  H   0.72288
   54  H   0.86917
   55  H   0.82624
   56  H   0.81290
   57  H   0.84063
   58  H   0.85014
   59  H   0.85020
   60  H   0.84135
   61  H   0.81441

 **********************
 *                    *
 * JOB ENDED NORMALLY *
 *                    *
 **********************



 TOTAL JOB TIME:            12.68 SECONDS

 == MOPAC DONE ==
