 *******************************************************************************
 **                                                                           **
 **                              MOPAC v23.0.3                                **
 **                                                                           **
 *******************************************************************************
 **          Digital Object Identifier (DOI): 10.5281/zenodo.6511958          **
 **    Visit the DOI location for information on how to cite this program.    **
 *******************************************************************************

                              PM7 CALCULATION RESULTS

 *******************************************************************************
 *  CALCULATION DONE:                                Fri Jul 25 16:28:13 2025  *
 *  PM7        - The PM7 Hamiltonian to be used
 *  XYZ        - CARTESIAN COORDINATE SYSTEM TO BE USED
 *  T=         - A TIME OF 172800.0 SECONDS REQUESTED
 *  DUMP=N     - RESTART FILE WRITTEN EVERY 7200.0 SECONDS REQUESTED
 *******************************************************************************
PM7 XYZ

 Lipophilicity_1176 - geometry optimisation
   ATOM   CHEMICAL          X               Y               Z
  NUMBER   SYMBOL      (ANGSTROMS)     (ANGSTROMS)     (ANGSTROMS)

     1       C          2.65671900  *  -2.62178600  *  -0.39957400  *
     2       C          3.12416000  *  -1.31421100  *   0.17137600  *
     3       N          4.46837700  *  -1.13981400  *   0.34454700  *
     4       C          4.92547600  *   0.02342000  *   0.85673200  *
     5       N          6.21470900  *   0.33279700  *   1.07235800  *
     6       C          6.09692600  *   1.59336200  *   1.56899000  *
     7       N          4.81219700  *   2.01948900  *   1.64627600  *
     8       N          4.09964900  *   1.00852000  *   1.19208400  *
     9       C          2.75501400  *   0.93213600  *   1.05782700  *
    10       O          1.97209900  *   2.03325700  *   1.41526800  *
    11       C          2.20955200  *  -0.27793900  *   0.54746900  *
    12       C          0.71370900  *  -0.44196400  *   0.36663600  *
    13       C          0.25196200  *   0.18149000  *  -0.95389000  *
    14       O         -1.14776700  *  -0.01979500  *  -1.13844000  *
    15       C         -2.13069600  *   0.70914100  *  -0.45719800  *
    16       O         -1.79322100  *   1.64166000  *   0.32378800  *
    17       C         -3.56666700  *   0.39434600  *  -0.65617600  *
    18       C         -4.55170100  *   1.14467000  *   0.01631300  *
    19       C         -5.90822800  *   0.85859500  *  -0.16122300  *
    20       C         -6.30039000  *  -0.17750600  *  -1.00948900  *
    21       C         -5.33679300  *  -0.93053800  *  -1.68235500  *
    22       C         -3.97620900  *  -0.65200100  *  -1.51136900  *
    23       F         -3.07134500  *  -1.40882000  *  -2.18205900  *
    24       H          3.52212900  *  -3.22849000  *  -0.74157400  *
    25       H          2.11282000  *  -3.19917900  *   0.37689200  *
    26       H          1.99486400  *  -2.44750800  *  -1.27315200  *
    27       H          6.94303900  *   2.19606600  *   1.87021900  *
    28       H          0.96842600  *   2.06746500  *   1.30207800  *
    29       H          0.42186300  *  -1.51191000  *   0.38161300  *
    30       H          0.17188300  *   0.01128000  *   1.22159800  *
    31       H          0.78682100  *  -0.30786100  *  -1.79511300  *
    32       H          0.48940900  *   1.26701300  *  -0.98740600  *
    33       H         -4.27537200  *   1.95414100  *   0.68036700  *
    34       H         -6.65635500  *   1.44170500  *   0.36023700  *
    35       H         -7.35143500  *  -0.39738900  *  -1.14543300  *
    36       H         -5.64562900  *  -1.73384100  *  -2.33898900  *



          CARTESIAN COORDINATES 

    NO.       ATOM           X           Y           Z

     1         C          2.6567     -2.6218     -0.3996
     2         C          3.1242     -1.3142      0.1714
     3         N          4.4684     -1.1398      0.3445
     4         C          4.9255      0.0234      0.8567
     5         N          6.2147      0.3328      1.0724
     6         C          6.0969      1.5934      1.5690
     7         N          4.8122      2.0195      1.6463
     8         N          4.0996      1.0085      1.1921
     9         C          2.7550      0.9321      1.0578
    10         O          1.9721      2.0333      1.4153
    11         C          2.2096     -0.2779      0.5475
    12         C          0.7137     -0.4420      0.3666
    13         C          0.2520      0.1815     -0.9539
    14         O         -1.1478     -0.0198     -1.1384
    15         C         -2.1307      0.7091     -0.4572
    16         O         -1.7932      1.6417      0.3238
    17         C         -3.5667      0.3943     -0.6562
    18         C         -4.5517      1.1447      0.0163
    19         C         -5.9082      0.8586     -0.1612
    20         C         -6.3004     -0.1775     -1.0095
    21         C         -5.3368     -0.9305     -1.6824
    22         C         -3.9762     -0.6520     -1.5114
    23         F         -3.0713     -1.4088     -2.1821
    24         H          3.5221     -3.2285     -0.7416
    25         H          2.1128     -3.1992      0.3769
    26         H          1.9949     -2.4475     -1.2732
    27         H          6.9430      2.1961      1.8702
    28         H          0.9684      2.0675      1.3021
    29         H          0.4219     -1.5119      0.3816
    30         H          0.1719      0.0113      1.2216
    31         H          0.7868     -0.3079     -1.7951
    32         H          0.4894      1.2670     -0.9874
    33         H         -4.2754      1.9541      0.6804
    34         H         -6.6564      1.4417      0.3602
    35         H         -7.3514     -0.3974     -1.1454
    36         H         -5.6456     -1.7338     -2.3390

 General Reference for PM7:
 "Optimization of Parameters for Semiempirical Methods VI: More Modifications to the 
 NDDO Approximations and Re-optimization of Parameters", J. J. P. Stewart, J. Mol. Mod., 1:32, 19 (2013)
 https://link.springer.com/article/10.1007/s00894-012-1667-x

           Empirical Formula: C15 H13 N4 O3 F  =    36 atoms



      MOLECULAR POINT GROUP   :   C1  


      RHF CALCULATION, NO. OF DOUBLY OCCUPIED LEVELS = 59


          Geometry optimization using L-BFGS
 CYCLE:     1 TIME:   0.039 TIME LEFT:  2.00D  GRAD.:   335.425 HEAT: -33.50349
 CYCLE:     2 TIME:   0.023 TIME LEFT:  2.00D  GRAD.:   327.209 HEAT: -34.61491
 CYCLE:     3 TIME:   0.027 TIME LEFT:  2.00D  GRAD.:    85.240 HEAT: -60.71940
 CYCLE:     4 TIME:   0.027 TIME LEFT:  2.00D  GRAD.:   327.257 HEAT: -34.61539
 CYCLE:     5 TIME:   0.027 TIME LEFT:  2.00D  GRAD.:    85.218 HEAT: -60.72116
 CYCLE:     6 TIME:   0.023 TIME LEFT:  2.00D  GRAD.:    51.040 HEAT: -63.16885
 CYCLE:     7 TIME:   0.020 TIME LEFT:  2.00D  GRAD.:    39.512 HEAT: -64.66313
 CYCLE:     8 TIME:   0.023 TIME LEFT:  2.00D  GRAD.:    45.914 HEAT: -66.10067
 CYCLE:     9 TIME:   0.023 TIME LEFT:  2.00D  GRAD.:    45.795 HEAT: -67.19715
 CYCLE:    10 TIME:   0.020 TIME LEFT:  2.00D  GRAD.:    25.320 HEAT: -68.03460
 CYCLE:    11 TIME:   0.023 TIME LEFT:  2.00D  GRAD.:    20.207 HEAT: -68.58970
 CYCLE:    12 TIME:   0.023 TIME LEFT:  2.00D  GRAD.:    22.309 HEAT: -68.86132
 CYCLE:    13 TIME:   0.020 TIME LEFT:  2.00D  GRAD.:    15.640 HEAT: -69.16370
 CYCLE:    14 TIME:   0.020 TIME LEFT:  2.00D  GRAD.:    19.043 HEAT: -69.39884
 CYCLE:    15 TIME:   0.020 TIME LEFT:  2.00D  GRAD.:    14.960 HEAT: -69.60859
 CYCLE:    16 TIME:   0.023 TIME LEFT:  2.00D  GRAD.:    13.258 HEAT: -69.79298
 CYCLE:    17 TIME:   0.020 TIME LEFT:  2.00D  GRAD.:    20.505 HEAT: -69.89952
 CYCLE:    18 TIME:   0.020 TIME LEFT:  2.00D  GRAD.:     8.617 HEAT: -70.00683
 CYCLE:    19 TIME:   0.020 TIME LEFT:  2.00D  GRAD.:     8.035 HEAT: -70.05844
 CYCLE:    20 TIME:   0.023 TIME LEFT:  2.00D  GRAD.:     9.210 HEAT: -70.13357
 CYCLE:    21 TIME:   0.020 TIME LEFT:  2.00D  GRAD.:    25.355 HEAT: -70.14823
 CYCLE:    22 TIME:   0.020 TIME LEFT:  2.00D  GRAD.:     8.451 HEAT: -70.24917
 CYCLE:    23 TIME:   0.023 TIME LEFT:  2.00D  GRAD.:     6.195 HEAT: -70.28636
 CYCLE:    24 TIME:   0.020 TIME LEFT:  2.00D  GRAD.:     7.438 HEAT: -70.33113
 CYCLE:    25 TIME:   0.020 TIME LEFT:  2.00D  GRAD.:     7.774 HEAT: -70.39253
 CYCLE:    26 TIME:   0.023 TIME LEFT:  2.00D  GRAD.:    15.227 HEAT: -70.46649
 CYCLE:    27 TIME:   0.020 TIME LEFT:  2.00D  GRAD.:     8.524 HEAT: -70.56002
 CYCLE:    28 TIME:   0.023 TIME LEFT:  2.00D  GRAD.:     6.535 HEAT: -70.62164
 CYCLE:    29 TIME:   0.020 TIME LEFT:  2.00D  GRAD.:    10.425 HEAT: -70.69213
 CYCLE:    30 TIME:   0.023 TIME LEFT:  2.00D  GRAD.:    13.463 HEAT: -70.72775
 CYCLE:    31 TIME:   0.020 TIME LEFT:  2.00D  GRAD.:     7.509 HEAT: -70.76891
 CYCLE:    32 TIME:   0.020 TIME LEFT:  2.00D  GRAD.:     5.285 HEAT: -70.81669
 CYCLE:    33 TIME:   0.023 TIME LEFT:  2.00D  GRAD.:     6.448 HEAT: -70.84592
 CYCLE:    34 TIME:   0.023 TIME LEFT:  2.00D  GRAD.:    16.402 HEAT: -70.87258
 CYCLE:    35 TIME:   0.023 TIME LEFT:  2.00D  GRAD.:     5.559 HEAT: -70.92796
 CYCLE:    36 TIME:   0.020 TIME LEFT:  2.00D  GRAD.:     3.856 HEAT: -70.94837
 CYCLE:    37 TIME:   0.023 TIME LEFT:  2.00D  GRAD.:     4.498 HEAT: -70.96366
 CYCLE:    38 TIME:   0.020 TIME LEFT:  2.00D  GRAD.:     7.317 HEAT: -70.97548
 CYCLE:    39 TIME:   0.020 TIME LEFT:  2.00D  GRAD.:     4.006 HEAT: -70.98862
 CYCLE:    40 TIME:   0.023 TIME LEFT:  2.00D  GRAD.:     3.486 HEAT: -71.00405
 CYCLE:    41 TIME:   0.020 TIME LEFT:  2.00D  GRAD.:     3.878 HEAT: -71.01507
 CYCLE:    42 TIME:   0.023 TIME LEFT:  2.00D  GRAD.:     9.324 HEAT: -71.02629
 CYCLE:    43 TIME:   0.020 TIME LEFT:  2.00D  GRAD.:     3.915 HEAT: -71.04212
 CYCLE:    44 TIME:   0.020 TIME LEFT:  2.00D  GRAD.:     2.389 HEAT: -71.04756
 CYCLE:    45 TIME:   0.023 TIME LEFT:  2.00D  GRAD.:     2.532 HEAT: -71.05326
 CYCLE:    46 TIME:   0.023 TIME LEFT:  2.00D  GRAD.:     4.707 HEAT: -71.06383
 CYCLE:    47 TIME:   0.020 TIME LEFT:  2.00D  GRAD.:     6.224 HEAT: -71.08520
 CYCLE:    48 TIME:   0.020 TIME LEFT:  2.00D  GRAD.:     8.335 HEAT: -71.10085
 CYCLE:    49 TIME:   0.023 TIME LEFT:  2.00D  GRAD.:     5.008 HEAT: -71.11620
 CYCLE:    50 TIME:   0.020 TIME LEFT:  2.00D  GRAD.:     3.937 HEAT: -71.12965
 CYCLE:    51 TIME:   0.020 TIME LEFT:  2.00D  GRAD.:     3.922 HEAT: -71.13993
 CYCLE:    52 TIME:   0.023 TIME LEFT:  2.00D  GRAD.:     3.435 HEAT: -71.14890
 CYCLE:    53 TIME:   0.020 TIME LEFT:  2.00D  GRAD.:     6.522 HEAT: -71.16110
 CYCLE:    54 TIME:   0.023 TIME LEFT:  2.00D  GRAD.:     3.553 HEAT: -71.17405
 CYCLE:    55 TIME:   0.020 TIME LEFT:  2.00D  GRAD.:     3.864 HEAT: -71.18421
 CYCLE:    56 TIME:   0.020 TIME LEFT:  2.00D  GRAD.:     4.468 HEAT: -71.19818
 CYCLE:    57 TIME:   0.023 TIME LEFT:  2.00D  GRAD.:     8.280 HEAT: -71.21255
 CYCLE:    58 TIME:   0.023 TIME LEFT:  2.00D  GRAD.:     5.527 HEAT: -71.23387
 CYCLE:    59 TIME:   0.020 TIME LEFT:  2.00D  GRAD.:     4.077 HEAT: -71.25205
 CYCLE:    60 TIME:   0.020 TIME LEFT:  2.00D  GRAD.:     5.128 HEAT: -71.26675
 CYCLE:    61 TIME:   0.023 TIME LEFT:  2.00D  GRAD.:     4.443 HEAT: -71.28060
 CYCLE:    62 TIME:   0.020 TIME LEFT:  2.00D  GRAD.:     5.509 HEAT: -71.29264
 CYCLE:    63 TIME:   0.023 TIME LEFT:  2.00D  GRAD.:    10.381 HEAT: -71.31148
 CYCLE:    64 TIME:   0.020 TIME LEFT:  2.00D  GRAD.:     5.128 HEAT: -71.34498
 CYCLE:    65 TIME:   0.023 TIME LEFT:  2.00D  GRAD.:     4.940 HEAT: -71.37069
 CYCLE:    66 TIME:   0.020 TIME LEFT:  2.00D  GRAD.:     5.997 HEAT: -71.39862
 CYCLE:    67 TIME:   0.023 TIME LEFT:  2.00D  GRAD.:    12.299 HEAT: -71.42008
 CYCLE:    68 TIME:   0.020 TIME LEFT:  2.00D  GRAD.:     5.201 HEAT: -71.45987
 CYCLE:    69 TIME:   0.020 TIME LEFT:  2.00D  GRAD.:     5.549 HEAT: -71.48520
 CYCLE:    70 TIME:   0.020 TIME LEFT:  2.00D  GRAD.:     7.189 HEAT: -71.52211
 CYCLE:    71 TIME:   0.023 TIME LEFT:  2.00D  GRAD.:    14.937 HEAT: -71.55522
 CYCLE:    72 TIME:   0.023 TIME LEFT:  2.00D  GRAD.:     9.290 HEAT: -71.61857
 CYCLE:    73 TIME:   0.023 TIME LEFT:  2.00D  GRAD.:     9.217 HEAT: -71.70753
 CYCLE:    74 TIME:   0.020 TIME LEFT:  2.00D  GRAD.:    10.433 HEAT: -71.76684
 CYCLE:    75 TIME:   0.023 TIME LEFT:  2.00D  GRAD.:    11.493 HEAT: -71.83246
 CYCLE:    76 TIME:   0.023 TIME LEFT:  2.00D  GRAD.:    12.453 HEAT: -71.89955
 CYCLE:    77 TIME:   0.023 TIME LEFT:  2.00D  GRAD.:    17.427 HEAT: -71.91854
 CYCLE:    78 TIME:   0.027 TIME LEFT:  2.00D  GRAD.:    32.498 HEAT: -71.81191
 CYCLE:    79 TIME:   0.023 TIME LEFT:  2.00D  GRAD.:    22.856 HEAT: -71.96993
 CYCLE:    80 TIME:   0.023 TIME LEFT:  2.00D  GRAD.:    78.974 HEAT: -71.01856
 CYCLE:    81 TIME:   0.023 TIME LEFT:  2.00D  GRAD.:    62.710 HEAT: -71.37918
 CYCLE:    82 TIME:   0.027 TIME LEFT:  2.00D  GRAD.:   139.095 HEAT: -68.85419
 CYCLE:    83 TIME:   0.027 TIME LEFT:  2.00D  GRAD.:    25.166 HEAT: -71.72114
 CYCLE:    84 TIME:   0.023 TIME LEFT:  2.00D  GRAD.:    22.816 HEAT: -72.02807
 CYCLE:    85 TIME:   0.031 TIME LEFT:  2.00D  GRAD.:    82.827 HEAT: -70.13087
 CYCLE:    86 TIME:   0.023 TIME LEFT:  2.00D  GRAD.:    48.739 HEAT: -71.59660
 CYCLE:    87 TIME:   0.027 TIME LEFT:  2.00D  GRAD.:    69.611 HEAT: -69.08398
 CYCLE:    88 TIME:   0.027 TIME LEFT:  2.00D  GRAD.:   496.970 HEAT: -30.18333
 CYCLE:    89 TIME:   0.027 TIME LEFT:  2.00D  GRAD.:   131.996 HEAT: -68.27711
 CYCLE:    90 TIME:   0.023 TIME LEFT:  2.00D  GRAD.:    47.843 HEAT: -71.15128
 CYCLE:    91 TIME:   0.023 TIME LEFT:  2.00D  GRAD.:    32.193 HEAT: -71.99892
 CYCLE:    92 TIME:   0.027 TIME LEFT:  2.00D  GRAD.:   180.964 HEAT: -56.17354
 CYCLE:    93 TIME:   0.027 TIME LEFT:  2.00D  GRAD.:    81.345 HEAT: -69.75770
 CYCLE:    94 TIME:   0.023 TIME LEFT:  2.00D  GRAD.:   142.263 HEAT: -68.31524
 CYCLE:    95 TIME:   0.023 TIME LEFT:  2.00D  GRAD.:    27.299 HEAT: -72.72193
 CYCLE:    96 TIME:   0.023 TIME LEFT:  2.00D  GRAD.:    28.633 HEAT: -72.88983
 CYCLE:    97 TIME:   0.020 TIME LEFT:  2.00D  GRAD.:    27.036 HEAT: -73.28958
 CYCLE:    98 TIME:   0.023 TIME LEFT:  2.00D  GRAD.:    15.148 HEAT: -73.62086
 CYCLE:    99 TIME:   0.020 TIME LEFT:  2.00D  GRAD.:    11.888 HEAT: -73.81786
 CYCLE:   100 TIME:   0.020 TIME LEFT:  2.00D  GRAD.:    14.420 HEAT: -73.93538
 CYCLE:   101 TIME:   0.020 TIME LEFT:  2.00D  GRAD.:    11.755 HEAT: -74.03012
 CYCLE:   102 TIME:   0.023 TIME LEFT:  2.00D  GRAD.:     8.126 HEAT: -74.09240
 CYCLE:   103 TIME:   0.020 TIME LEFT:  2.00D  GRAD.:     7.046 HEAT: -74.14051
 CYCLE:   104 TIME:   0.023 TIME LEFT:  2.00D  GRAD.:     8.774 HEAT: -74.18749
 CYCLE:   105 TIME:   0.020 TIME LEFT:  2.00D  GRAD.:     7.741 HEAT: -74.22454
 CYCLE:   106 TIME:   0.020 TIME LEFT:  2.00D  GRAD.:     5.660 HEAT: -74.25377
 CYCLE:   107 TIME:   0.020 TIME LEFT:  2.00D  GRAD.:     5.551 HEAT: -74.28569
 CYCLE:   108 TIME:   0.023 TIME LEFT:  2.00D  GRAD.:     6.750 HEAT: -74.31903
 CYCLE:   109 TIME:   0.020 TIME LEFT:  2.00D  GRAD.:     8.662 HEAT: -74.34314
 CYCLE:   110 TIME:   0.020 TIME LEFT:  2.00D  GRAD.:     4.626 HEAT: -74.36834
 CYCLE:   111 TIME:   0.020 TIME LEFT:  2.00D  GRAD.:     4.173 HEAT: -74.38910
 CYCLE:   112 TIME:   0.031 TIME LEFT:  2.00D  GRAD.:     4.612 HEAT: -74.40995
 CYCLE:   113 TIME:   0.023 TIME LEFT:  2.00D  GRAD.:    11.343 HEAT: -74.41244
 CYCLE:   114 TIME:   0.020 TIME LEFT:  2.00D  GRAD.:     3.669 HEAT: -74.43989
 CYCLE:   115 TIME:   0.020 TIME LEFT:  2.00D  GRAD.:     2.985 HEAT: -74.44919
 CYCLE:   116 TIME:   0.023 TIME LEFT:  2.00D  GRAD.:     4.160 HEAT: -74.46575
 CYCLE:   117 TIME:   0.020 TIME LEFT:  2.00D  GRAD.:     8.165 HEAT: -74.49245
 CYCLE:   118 TIME:   0.020 TIME LEFT:  2.00D  GRAD.:     7.118 HEAT: -74.52001
 CYCLE:   119 TIME:   0.023 TIME LEFT:  2.00D  GRAD.:     7.355 HEAT: -74.55086
 CYCLE:   120 TIME:   0.023 TIME LEFT:  2.00D  GRAD.:     7.413 HEAT: -74.59181
 CYCLE:   121 TIME:   0.020 TIME LEFT:  2.00D  GRAD.:     6.843 HEAT: -74.62328
 CYCLE:   122 TIME:   0.020 TIME LEFT:  2.00D  GRAD.:     6.182 HEAT: -74.66096
 CYCLE:   123 TIME:   0.023 TIME LEFT:  2.00D  GRAD.:     7.444 HEAT: -74.69974
 CYCLE:   124 TIME:   0.020 TIME LEFT:  2.00D  GRAD.:     7.427 HEAT: -74.72171
 CYCLE:   125 TIME:   0.023 TIME LEFT:  2.00D  GRAD.:     4.376 HEAT: -74.73900
 CYCLE:   126 TIME:   0.020 TIME LEFT:  2.00D  GRAD.:     3.287 HEAT: -74.75316
 CYCLE:   127 TIME:   0.020 TIME LEFT:  2.00D  GRAD.:     3.419 HEAT: -74.76680
 CYCLE:   128 TIME:   0.023 TIME LEFT:  2.00D  GRAD.:     6.661 HEAT: -74.77562
 CYCLE:   129 TIME:   0.020 TIME LEFT:  2.00D  GRAD.:     4.621 HEAT: -74.78930
 CYCLE:   130 TIME:   0.023 TIME LEFT:  2.00D  GRAD.:     3.906 HEAT: -74.79936
 CYCLE:   131 TIME:   0.023 TIME LEFT:  2.00D  GRAD.:     3.826 HEAT: -74.81438
 CYCLE:   132 TIME:   0.020 TIME LEFT:  2.00D  GRAD.:     6.674 HEAT: -74.83058
 CYCLE:   133 TIME:   0.133 TIME LEFT:  2.00D  GRAD.:     5.552 HEAT: -74.85441
 CYCLE:   134 TIME:   0.141 TIME LEFT:  2.00D  GRAD.:     8.061 HEAT: -74.87447
 CYCLE:   135 TIME:   0.027 TIME LEFT:  2.00D  GRAD.:     4.913 HEAT: -74.89802
 CYCLE:   136 TIME:   0.020 TIME LEFT:  2.00D  GRAD.:     4.285 HEAT: -74.91518
 CYCLE:   137 TIME:   0.023 TIME LEFT:  2.00D  GRAD.:     9.438 HEAT: -74.92241
 CYCLE:   138 TIME:   0.020 TIME LEFT:  2.00D  GRAD.:     4.351 HEAT: -74.94388
 CYCLE:   139 TIME:   0.023 TIME LEFT:  2.00D  GRAD.:     3.453 HEAT: -74.95105
 CYCLE:   140 TIME:   0.020 TIME LEFT:  2.00D  GRAD.:     3.250 HEAT: -74.95617
 CYCLE:   141 TIME:   0.023 TIME LEFT:  2.00D  GRAD.:    26.229 HEAT: -74.85840
 CYCLE:   142 TIME:   0.023 TIME LEFT:  2.00D  GRAD.:     3.473 HEAT: -74.97773
 CYCLE:   143 TIME:   0.023 TIME LEFT:  2.00D  GRAD.:     1.924 HEAT: -74.98275
 CYCLE:   144 TIME:   0.020 TIME LEFT:  2.00D  GRAD.:     2.920 HEAT: -74.99096
 CYCLE:   145 TIME:   0.023 TIME LEFT:  2.00D  GRAD.:     2.866 HEAT: -74.99987
 CYCLE:   146 TIME:   0.023 TIME LEFT:  2.00D  GRAD.:     5.312 HEAT: -75.00033
 CYCLE:   147 TIME:   0.020 TIME LEFT:  2.00D  GRAD.:     2.024 HEAT: -75.00814
 CYCLE:   148 TIME:   0.023 TIME LEFT:  2.00D  GRAD.:     3.340 HEAT: -75.01092
 CYCLE:   149 TIME:   0.023 TIME LEFT:  2.00D  GRAD.:     2.019 HEAT: -75.01668
 CYCLE:   150 TIME:   0.023 TIME LEFT:  2.00D  GRAD.:     2.014 HEAT: -75.02093
 CYCLE:   151 TIME:   0.023 TIME LEFT:  2.00D  GRAD.:     2.721 HEAT: -75.02457
 CYCLE:   152 TIME:   0.020 TIME LEFT:  2.00D  GRAD.:     2.511 HEAT: -75.03149
 CYCLE:   153 TIME:   0.023 TIME LEFT:  2.00D  GRAD.:     5.117 HEAT: -75.03680
 CYCLE:   154 TIME:   0.020 TIME LEFT:  2.00D  GRAD.:     2.660 HEAT: -75.04301
 CYCLE:   155 TIME:   0.020 TIME LEFT:  2.00D  GRAD.:     2.120 HEAT: -75.04613
 CYCLE:   156 TIME:   0.020 TIME LEFT:  2.00D  GRAD.:     2.080 HEAT: -75.05205
 CYCLE:   157 TIME:   0.023 TIME LEFT:  2.00D  GRAD.:     5.376 HEAT: -75.05526
 CYCLE:   158 TIME:   0.023 TIME LEFT:  2.00D  GRAD.:     2.103 HEAT: -75.06123
 CYCLE:   159 TIME:   0.020 TIME LEFT:  2.00D  GRAD.:     1.643 HEAT: -75.06326
 CYCLE:   160 TIME:   0.023 TIME LEFT:  2.00D  GRAD.:     1.976 HEAT: -75.06789
 CYCLE:   161 TIME:   0.020 TIME LEFT:  2.00D  GRAD.:     3.810 HEAT: -75.07053
 CYCLE:   162 TIME:   0.023 TIME LEFT:  2.00D  GRAD.:     2.533 HEAT: -75.07583
 CYCLE:   163 TIME:   0.020 TIME LEFT:  2.00D  GRAD.:     2.121 HEAT: -75.08091
 CYCLE:   164 TIME:   0.023 TIME LEFT:  2.00D  GRAD.:     3.985 HEAT: -75.08288
 CYCLE:   165 TIME:   0.020 TIME LEFT:  2.00D  GRAD.:     1.689 HEAT: -75.08667
 CYCLE:   166 TIME:   0.023 TIME LEFT:  2.00D  GRAD.:     2.027 HEAT: -75.08855
 CYCLE:   167 TIME:   0.020 TIME LEFT:  2.00D  GRAD.:     1.598 HEAT: -75.09041
 CYCLE:   168 TIME:   0.020 TIME LEFT:  2.00D  GRAD.:     1.772 HEAT: -75.09292
 CYCLE:   169 TIME:   0.023 TIME LEFT:  2.00D  GRAD.:     1.940 HEAT: -75.09455
 CYCLE:   170 TIME:   0.020 TIME LEFT:  2.00D  GRAD.:     1.711 HEAT: -75.09722
 CYCLE:   171 TIME:   0.023 TIME LEFT:  2.00D  GRAD.:     4.363 HEAT: -75.09927
 CYCLE:   172 TIME:   0.020 TIME LEFT:  2.00D  GRAD.:     1.862 HEAT: -75.10318
 CYCLE:   173 TIME:   0.023 TIME LEFT:  2.00D  GRAD.:     1.557 HEAT: -75.10479
 CYCLE:   174 TIME:   0.020 TIME LEFT:  2.00D  GRAD.:     1.389 HEAT: -75.10645
 CYCLE:   175 TIME:   0.023 TIME LEFT:  2.00D  GRAD.:     1.495 HEAT: -75.10901
 CYCLE:   176 TIME:   0.023 TIME LEFT:  2.00D  GRAD.:     4.724 HEAT: -75.10886
 CYCLE:   177 TIME:   0.020 TIME LEFT:  2.00D  GRAD.:     1.561 HEAT: -75.11242
 CYCLE:   178 TIME:   0.023 TIME LEFT:  2.00D  GRAD.:     0.850 HEAT: -75.11361

 -------------------------------------------------------------------------------
 PM7 XYZ

 Lipophilicity_1176 - geometry optimisation


     HERBERTS TEST WAS SATISFIED IN BFGS                      
     SCF FIELD WAS ACHIEVED                                   


                              PM7 CALCULATION
                                                       MOPAC v23.0.3 Linux
                                                       Fri Jul 25 16:28:17 2025




          FINAL HEAT OF FORMATION =        -75.11361 KCAL/MOL =    -314.27536 KJ/MOL


          COSMO AREA              =        310.25 SQUARE ANGSTROMS
          COSMO VOLUME            =        341.12 CUBIC ANGSTROMS

          GRADIENT NORM           =          0.84978          =       0.14163 PER ATOM
          IONIZATION POTENTIAL    =          9.364912 EV
          HOMO LUMO ENERGIES (EV) =         -9.365 -1.409
          NO. OF FILLED LEVELS    =         59
          MOLECULAR WEIGHT        =        316.2911         POINT GROUP:  C1  

          MOLECULAR DIMENSIONS (Angstroms)

            Atom       Atom       Distance
            H    35    H    27    13.69744
            H    34    H    24     7.79040
            H    25    H    31     3.00955


          SCF CALCULATIONS        =        179

          WALL-CLOCK TIME         =      4.199 SECONDS
          COMPUTATION TIME        =          1 MINUTE AND 23.477 SECONDS




   ATOM   CHEMICAL          X               Y               Z
  NUMBER   SYMBOL      (ANGSTROMS)     (ANGSTROMS)     (ANGSTROMS)

     1       C          3.14635954  *  -2.72128602  *  -0.44317466  *
     2       C          3.24819034  *  -1.35340975  *   0.14826065  *
     3       N          4.47847391  *  -0.98673397  *   0.50486093  *
     4       C          4.66742618  *   0.24091238  *   1.04426519  *
     5       N          5.74002328  *   0.90710655  *   1.49730549  *
     6       C          5.27177155  *   2.15430061  *   1.91885768  *
     7       N          3.94131501  *   2.32051833  *   1.75749074  *
     8       N          3.51711578  *   1.13985084  *   1.21118304  *
     9       C          2.24822831  *   0.75548536  *   0.84655697  *
    10       O          1.32169588  *   1.67586522  *   1.04675338  *
    11       C          2.09643503  *  -0.52405441  *   0.30571296  *
    12       C          0.73606174  *  -0.99523068  *  -0.06404122  *
    13       C          0.23292090  *  -0.28025347  *  -1.32201215  *
    14       O         -1.19736973  *  -0.26105753  *  -1.34394847  *
    15       C         -1.82197544  *   0.50821012  *  -0.43494035  *
    16       O         -1.22830974  *   1.18318967  *   0.38358129  *
    17       C         -3.28103953  *   0.43583709  *  -0.54983947  *
    18       C         -4.04562007  *   1.38477585  *   0.14144415  *
    19       C         -5.43332026  *   1.35106128  *   0.06624245  *
    20       C         -6.07541124  *   0.36946543  *  -0.69283242  *
    21       C         -5.33837998  *  -0.58841081  *  -1.38405617  *
    22       C         -3.94702405  *  -0.53754898  *  -1.29936222  *
    23       F         -3.24117511  *  -1.44922561  *  -1.94102865  *
    24       H          4.13941274  *  -3.20256814  *  -0.52775316  *
    25       H          2.52825122  *  -3.38413564  *   0.18066004  *
    26       H          2.71680127  *  -2.69371220  *  -1.45480611  *
    27       H          5.93553597  *   2.90243853  *   2.33128587  *
    28       H          0.37214082  *   1.40071755  *   0.76830204  *
    29       H          0.70881504  *  -2.09484784  *  -0.21979407  *
    30       H          0.02758203  *  -0.84455315  *   0.78317752  *
    31       H          0.45269400  *  -0.84095280  *  -2.25115960  *
    32       H          0.61321487  *   0.75213701  *  -1.42102192  *
    33       H         -3.53656542  *   2.14842335  *   0.74185924  *
    34       H         -6.02353051  *   2.09307882  *   0.60339829  *
    35       H         -7.16631756  *   0.35018326  *  -0.74237002  *
    36       H         -5.83614853  *  -1.35673422  *  -1.97437459  *

                             CARTESIAN COORDINATES

   1    C        3.146359544    -2.721286021    -0.443174664
   2    C        3.248190339    -1.353409754     0.148260647
   3    N        4.478473911    -0.986733970     0.504860935
   4    C        4.667426179     0.240912384     1.044265188
   5    N        5.740023276     0.907106554     1.497305486
   6    C        5.271771552     2.154300605     1.918857675
   7    N        3.941315010     2.320518326     1.757490736
   8    N        3.517115782     1.139850839     1.211183039
   9    C        2.248228310     0.755485361     0.846556969
  10    O        1.321695877     1.675865219     1.046753382
  11    C        2.096435028    -0.524054409     0.305712960
  12    C        0.736061742    -0.995230677    -0.064041218
  13    C        0.232920899    -0.280253471    -1.322012146
  14    O       -1.197369728    -0.261057525    -1.343948469
  15    C       -1.821975436     0.508210124    -0.434940352
  16    O       -1.228309742     1.183189666     0.383581293
  17    C       -3.281039529     0.435837089    -0.549839468
  18    C       -4.045620070     1.384775847     0.141444149
  19    C       -5.433320264     1.351061280     0.066242454
  20    C       -6.075411241     0.369465431    -0.692832417
  21    C       -5.338379976    -0.588410808    -1.384056166
  22    C       -3.947024045    -0.537548982    -1.299362219
  23    F       -3.241175109    -1.449225614    -1.941028652
  24    H        4.139412740    -3.202568144    -0.527753162
  25    H        2.528251216    -3.384135636     0.180660039
  26    H        2.716801272    -2.693712204    -1.454806106
  27    H        5.935535971     2.902438526     2.331285867
  28    H        0.372140821     1.400717548     0.768302041
  29    H        0.708815036    -2.094847836    -0.219794071
  30    H        0.027582031    -0.844553147     0.783177523
  31    H        0.452694000    -0.840952799    -2.251159596
  32    H        0.613214875     0.752137009    -1.421021918
  33    H       -3.536565423     2.148423352     0.741859241
  34    H       -6.023530514     2.093078816     0.603398290
  35    H       -7.166317558     0.350183260    -0.742370020
  36    H       -5.836148531    -1.356734221    -1.974374591


           Empirical Formula: C15 H13 N4 O3 F  =    36 atoms



      MOLECULAR POINT GROUP   :   C1  


                  EIGENVALUES  
 -41.93789 -40.78157 -36.35536 -34.54829 -32.40527 -31.75747 -31.53025 -30.87383
 -30.64876 -29.19773 -27.76136 -26.83915 -26.61528 -25.53725 -24.05874 -23.04504
 -22.20793 -22.12907 -21.70402 -21.50359 -20.72912 -19.58940 -18.99810 -18.56359
 -17.95891 -17.82817 -17.47468 -17.37254 -17.18953 -16.96682 -16.42680 -16.37279
 -15.87422 -15.61681 -15.44493 -15.26534 -15.17677 -15.09301 -14.77400 -14.59083
 -14.34794 -14.03106 -13.73724 -13.62939 -13.51932 -13.40782 -13.13223 -12.98798
 -12.92345 -12.70911 -12.11006 -11.78133 -11.56204 -11.24120 -11.05947 -10.73838
 -10.68104 -10.00176  -9.36491  -1.40949  -0.76390  -0.60322  -0.48185   0.41195
   0.43956   0.76862   1.15669   1.49293   1.55709   1.93686   2.04148   2.26386
   2.58367   2.76199   3.00551   3.06218   3.19562   3.22797   3.55056   3.60255
   3.77983   3.84790   3.90498   3.90831   4.06970   4.09869   4.24097   4.32559
   4.48555   4.69067   4.73481   4.92855   4.99722   5.11717   5.12487   5.17091
   5.26316   5.29677   5.32759   5.44212   5.47041   5.60227   5.78576   5.86599
   6.39322


              NET ATOMIC CHARGES AND DIPOLE CONTRIBUTIONS

  ATOM NO.   TYPE          CHARGE      No. of ELECS.   s-Pop       p-Pop       
    1          C          -0.449015        4.4490     1.05254     3.39648
    2          C           0.329580        3.6704     1.07767     2.59275
    3          N          -0.438602        5.4386     1.73887     3.69974
    4          C           0.417507        3.5825     1.08876     2.49373
    5          N          -0.426639        5.4266     1.77535     3.65128
    6          C           0.127243        3.8728     1.12369     2.74907
    7          N          -0.239629        5.2396     1.80181     3.43782
    8          N          -0.262448        5.2624     1.57396     3.68849
    9          C           0.511327        3.4887     1.06977     2.41890
   10          O          -0.424561        6.4246     1.83874     4.58582
   11          C          -0.376722        4.3767     1.04875     3.32797
   12          C          -0.272145        4.2721     1.05146     3.22069
   13          C          -0.016024        4.0160     1.09961     2.91641
   14          O          -0.385537        6.3855     1.86412     4.52142
   15          C           0.656514        3.3435     1.10260     2.24088
   16          O          -0.574217        6.5742     1.86969     4.70453
   17          C          -0.243500        4.2435     1.06090     3.18260
   18          C          -0.021379        4.0214     1.09430     2.92708
   19          C          -0.213259        4.2133     1.08123     3.13203
   20          C          -0.042568        4.0426     1.09175     2.95082
   21          C          -0.254602        4.2546     1.08099     3.17361
   22          C           0.268069        3.7319     1.09991     2.63202
   23          F          -0.144211        7.1442     1.96622     5.17799
   24          H           0.190164        0.8098     0.80984
   25          H           0.171130        0.8289     0.82887
   26          H           0.169047        0.8310     0.83095
   27          H           0.209079        0.7909     0.79092
   28          H           0.399827        0.6002     0.60017
   29          H           0.168127        0.8319     0.83187
   30          H           0.170152        0.8298     0.82985
   31          H           0.156911        0.8431     0.84309
   32          H           0.145444        0.8546     0.85456
   33          H           0.183516        0.8165     0.81648
   34          H           0.168902        0.8311     0.83110
   35          H           0.159385        0.8406     0.84062
   36          H           0.183136        0.8169     0.81686
 DIPOLE           X         Y         Z       TOTAL
 POINT-CHG.    -9.084    -2.023    -2.608     9.665
 HYBRID        -0.701     0.222    -0.089     0.741
 SUM           -9.785    -1.802    -2.697    10.309


          ATOMIC ORBITAL ELECTRON POPULATIONS

     Atom    s        px        py        pz   
    1  C   1.05254   1.21305   1.03404   1.14938
    2  C   1.07767   0.83709   0.93449   0.82116
    3  N   1.73887   1.27501   1.17235   1.25237
    4  C   1.08876   0.76574   0.82307   0.90492
    5  N   1.77535   1.26221   1.11598   1.27309
    6  C   1.12369   0.87941   0.92461   0.94506
    7  N   1.80181   1.17810   1.03008   1.22964
    8  N   1.57396   1.13610   1.13280   1.41959
    9  C   1.06977   0.74723   0.85484   0.81682
   10  O   1.83874   1.35197   1.45144   1.78241
   11  C   1.04875   1.02865   1.01319   1.28613
   12  C   1.05146   1.01286   1.13842   1.06941
   13  C   1.09961   0.73743   1.12094   1.05804
   14  O   1.86412   1.30973   1.64678   1.56492
   15  C   1.10260   0.84579   0.68578   0.70931
   16  O   1.86969   1.72866   1.50564   1.47022
   17  C   1.06090   0.98762   1.07501   1.11997
   18  C   1.09430   0.99390   0.98977   0.94341
   19  C   1.08123   1.01616   1.06044   1.05542
   20  C   1.09175   1.08068   0.94467   0.92547
   21  C   1.08099   0.99776   1.08679   1.08907
   22  C   1.09991   0.91534   0.85091   0.86577
   23  F   1.96622   1.77244   1.61601   1.78954
   24  H   0.80984
   25  H   0.82887
   26  H   0.83095
   27  H   0.79092
   28  H   0.60017
   29  H   0.83187
   30  H   0.82985
   31  H   0.84309
   32  H   0.85456
   33  H   0.81648
   34  H   0.83110
   35  H   0.84062
   36  H   0.81686

 **********************
 *                    *
 * JOB ENDED NORMALLY *
 *                    *
 **********************



 TOTAL JOB TIME:             4.20 SECONDS

 == MOPAC DONE ==
