 *******************************************************************************
 **                                                                           **
 **                              MOPAC v23.0.3                                **
 **                                                                           **
 *******************************************************************************
 **          Digital Object Identifier (DOI): 10.5281/zenodo.6511958          **
 **    Visit the DOI location for information on how to cite this program.    **
 *******************************************************************************

                              PM7 CALCULATION RESULTS

 *******************************************************************************
 *  CALCULATION DONE:                                Fri Jul 25 18:07:31 2025  *
 *  PM7        - The PM7 Hamiltonian to be used
 *  XYZ        - CARTESIAN COORDINATE SYSTEM TO BE USED
 *  T=         - A TIME OF 172800.0 SECONDS REQUESTED
 *  DUMP=N     - RESTART FILE WRITTEN EVERY 7200.0 SECONDS REQUESTED
 *******************************************************************************
PM7 XYZ

 Lipophilicity_1764 - geometry optimisation
   ATOM   CHEMICAL          X               Y               Z
  NUMBER   SYMBOL      (ANGSTROMS)     (ANGSTROMS)     (ANGSTROMS)

     1       F         -4.94635300  *   5.34032100  *   0.05361700  *
     2       C         -4.29149800  *   4.45510300  *  -0.78606800  *
     3       F         -2.95154100  *   4.79577200  *  -0.82132000  *
     4       F         -4.81642800  *   4.57139600  *  -2.05924100  *
     5       C         -4.48584800  *   3.04362100  *  -0.29650700  *
     6       C         -5.78138400  *   2.61455000  *   0.09579100  *
     7       C         -6.00927500  *   1.29150100  *   0.51701500  *
     8       C         -4.92904000  *   0.41446900  *   0.52550100  *
     9       N         -4.93392600  *  -0.88343000  *   0.89131000  *
    10       C         -3.66067700  *  -1.30397000  *   0.71828400  *
    11       C         -3.13350300  *  -2.65813400  *   1.06320300  *
    12       C         -1.82759500  *  -2.91523800  *   0.29267100  *
    13       N         -0.91274400  *  -1.75906900  *   0.39499800  *
    14       C         -1.38397500  *  -0.41408100  *   0.00707700  *
    15       C         -2.85213400  *  -0.27859600  *   0.26809500  *
    16       C         -3.67431000  *   0.81881300  *   0.13678700  *
    17       C         -3.41267700  *   2.12066900  *  -0.28588700  *
    18       C          0.48294800  *  -1.98782800  *   0.67295000  *
    19       O          0.80174900  *  -2.87241700  *   1.51462800  *
    20       C          1.56696200  *  -1.23773400  *  -0.08761900  *
    21       C          1.67412700  *  -1.76760300  *  -1.53179200  *
    22       C          2.31948000  *  -3.15575500  *  -1.58203400  *
    23       C          3.72444700  *  -3.12156500  *  -0.97732500  *
    24       C          3.70630400  *  -2.59823600  *   0.46786700  *
    25       C          2.94861000  *  -1.25406600  *   0.63399000  *
    26       C          3.78219500  *  -0.06433100  *   0.20695800  *
    27       O          4.59379200  *  -0.15874800  *  -0.75282900  *
    28       N          3.58628000  *   1.20277100  *   0.85039200  *
    29       C          4.30298000  *   2.40329600  *   0.42853600  *
    30       C          3.46351700  *   3.66459200  *   0.32497200  *
    31       C          3.91821200  *   2.94022600  *  -0.93964700  *
    32       C          5.70526900  *   2.54780500  *   0.83680400  *
    33       N          6.80952800  *   2.66097600  *   1.15954900  *
    34       H         -6.61380400  *   3.30599600  *   0.07175000  *
    35       H         -6.99670100  *   0.96455100  *   0.81732200  *
    36       H         -5.74421500  *  -1.44269200  *   1.24087100  *
    37       H         -2.93509000  *  -2.69732400  *   2.15523600  *
    38       H         -3.88431700  *  -3.43474600  *   0.80319900  *
    39       H         -2.06204800  *  -3.09089500  *  -0.77965200  *
    40       H         -1.35724300  *  -3.84214600  *   0.68721300  *
    41       H         -1.18097600  *  -0.24053000  *  -1.07155400  *
    42       H         -0.86179800  *   0.35843900  *   0.61351700  *
    43       H         -2.41395500  *   2.40156000  *  -0.59654000  *
    44       H          1.24591500  *  -0.17623900  *  -0.15333400  *
    45       H          2.28008700  *  -1.06091000  *  -2.14023200  *
    46       H          0.66655400  *  -1.81467500  *  -1.99813000  *
    47       H          2.38659300  *  -3.48804700  *  -2.64052900  *
    48       H          1.68944600  *  -3.89122400  *  -1.03563200  *
    49       H          4.38688500  *  -2.49423700  *  -1.60961400  *
    50       H          4.14481100  *  -4.15105600  *  -0.98310600  *
    51       H          4.75153300  *  -2.48819200  *   0.82902400  *
    52       H          3.23437900  *  -3.36876800  *   1.11169000  *
    53       H          2.76958500  *  -1.12519200  *   1.72505600  *
    54       H          2.92647500  *   1.27297500  *   1.65887800  *
    55       H          2.38036700  *   3.53838500  *   0.54579300  *
    56       H          4.00136000  *   4.61946900  *   0.50958600  *
    57       H          3.09413000  *   2.40250400  *  -1.45684000  *
    58       H          4.70853400  *   3.48791300  *  -1.49557100  *



          CARTESIAN COORDINATES 

    NO.       ATOM           X           Y           Z

     1         F         -4.9464      5.3403      0.0536
     2         C         -4.2915      4.4551     -0.7861
     3         F         -2.9515      4.7958     -0.8213
     4         F         -4.8164      4.5714     -2.0592
     5         C         -4.4858      3.0436     -0.2965
     6         C         -5.7814      2.6145      0.0958
     7         C         -6.0093      1.2915      0.5170
     8         C         -4.9290      0.4145      0.5255
     9         N         -4.9339     -0.8834      0.8913
    10         C         -3.6607     -1.3040      0.7183
    11         C         -3.1335     -2.6581      1.0632
    12         C         -1.8276     -2.9152      0.2927
    13         N         -0.9127     -1.7591      0.3950
    14         C         -1.3840     -0.4141      0.0071
    15         C         -2.8521     -0.2786      0.2681
    16         C         -3.6743      0.8188      0.1368
    17         C         -3.4127      2.1207     -0.2859
    18         C          0.4829     -1.9878      0.6730
    19         O          0.8017     -2.8724      1.5146
    20         C          1.5670     -1.2377     -0.0876
    21         C          1.6741     -1.7676     -1.5318
    22         C          2.3195     -3.1558     -1.5820
    23         C          3.7244     -3.1216     -0.9773
    24         C          3.7063     -2.5982      0.4679
    25         C          2.9486     -1.2541      0.6340
    26         C          3.7822     -0.0643      0.2070
    27         O          4.5938     -0.1587     -0.7528
    28         N          3.5863      1.2028      0.8504
    29         C          4.3030      2.4033      0.4285
    30         C          3.4635      3.6646      0.3250
    31         C          3.9182      2.9402     -0.9396
    32         C          5.7053      2.5478      0.8368
    33         N          6.8095      2.6610      1.1595
    34         H         -6.6138      3.3060      0.0718
    35         H         -6.9967      0.9646      0.8173
    36         H         -5.7442     -1.4427      1.2409
    37         H         -2.9351     -2.6973      2.1552
    38         H         -3.8843     -3.4347      0.8032
    39         H         -2.0620     -3.0909     -0.7797
    40         H         -1.3572     -3.8421      0.6872
    41         H         -1.1810     -0.2405     -1.0716
    42         H         -0.8618      0.3584      0.6135
    43         H         -2.4140      2.4016     -0.5965
    44         H          1.2459     -0.1762     -0.1533
    45         H          2.2801     -1.0609     -2.1402
    46         H          0.6666     -1.8147     -1.9981
    47         H          2.3866     -3.4880     -2.6405
    48         H          1.6894     -3.8912     -1.0356
    49         H          4.3869     -2.4942     -1.6096
    50         H          4.1448     -4.1511     -0.9831
    51         H          4.7515     -2.4882      0.8290
    52         H          3.2344     -3.3688      1.1117
    53         H          2.7696     -1.1252      1.7251
    54         H          2.9265      1.2730      1.6589
    55         H          2.3804      3.5384      0.5458
    56         H          4.0014      4.6195      0.5096
    57         H          3.0941      2.4025     -1.4568
    58         H          4.7085      3.4879     -1.4956

 General Reference for PM7:
 "Optimization of Parameters for Semiempirical Methods VI: More Modifications to the 
 NDDO Approximations and Re-optimization of Parameters", J. J. P. Stewart, J. Mol. Mod., 1:32, 19 (2013)
 https://link.springer.com/article/10.1007/s00894-012-1667-x

           Empirical Formula: C24 H25 N4 O2 F3  =    58 atoms



      MOLECULAR POINT GROUP   :   C1  


      RHF CALCULATION, NO. OF DOUBLY OCCUPIED LEVELS = 87


          Geometry optimization using L-BFGS
 CYCLE:     1 TIME:   0.090 TIME LEFT:  2.00D  GRAD.:   330.221 HEAT: -120.9902
 CYCLE:     2 TIME:   0.047 TIME LEFT:  2.00D  GRAD.:   322.182 HEAT: -122.0674
 CYCLE:     3 TIME:   0.051 TIME LEFT:  2.00D  GRAD.:   112.185 HEAT: -147.6343
 CYCLE:     4 TIME:   0.055 TIME LEFT:  2.00D  GRAD.:   322.446 HEAT: -122.0702
 CYCLE:     5 TIME:   0.059 TIME LEFT:  2.00D  GRAD.:   112.300 HEAT: -147.6351
 CYCLE:     6 TIME:   0.051 TIME LEFT:  2.00D  GRAD.:    82.575 HEAT: -150.6817
 CYCLE:     7 TIME:   0.055 TIME LEFT:  2.00D  GRAD.:    72.033 HEAT: -153.5863
 CYCLE:     8 TIME:   0.055 TIME LEFT:  2.00D  GRAD.:    97.165 HEAT: -155.5165
 CYCLE:     9 TIME:   0.051 TIME LEFT:  2.00D  GRAD.:    43.781 HEAT: -157.1277
 CYCLE:    10 TIME:   0.051 TIME LEFT:  2.00D  GRAD.:    40.802 HEAT: -158.0511
 CYCLE:    11 TIME:   0.051 TIME LEFT:  2.00D  GRAD.:    35.314 HEAT: -158.7809
 CYCLE:    12 TIME:   0.051 TIME LEFT:  2.00D  GRAD.:    32.075 HEAT: -159.8275
 CYCLE:    13 TIME:   0.051 TIME LEFT:  2.00D  GRAD.:    75.107 HEAT: -159.5804
 CYCLE:    14 TIME:   0.047 TIME LEFT:  2.00D  GRAD.:    17.842 HEAT: -160.5197
 CYCLE:    15 TIME:   0.047 TIME LEFT:  2.00D  GRAD.:    13.578 HEAT: -160.6581
 CYCLE:    16 TIME:   0.051 TIME LEFT:  2.00D  GRAD.:    18.782 HEAT: -160.9555
 CYCLE:    17 TIME:   0.051 TIME LEFT:  2.00D  GRAD.:    32.308 HEAT: -161.1422
 CYCLE:    18 TIME:   0.047 TIME LEFT:  2.00D  GRAD.:    18.311 HEAT: -161.3740
 CYCLE:    19 TIME:   0.051 TIME LEFT:  2.00D  GRAD.:    14.359 HEAT: -161.6405
 CYCLE:    20 TIME:   0.047 TIME LEFT:  2.00D  GRAD.:    16.057 HEAT: -161.8214
 CYCLE:    21 TIME:   0.051 TIME LEFT:  2.00D  GRAD.:    42.440 HEAT: -162.0205
 CYCLE:    22 TIME:   0.051 TIME LEFT:  2.00D  GRAD.:    13.590 HEAT: -162.3118
 CYCLE:    23 TIME:   0.047 TIME LEFT:  2.00D  GRAD.:    10.693 HEAT: -162.4049
 CYCLE:    24 TIME:   0.047 TIME LEFT:  2.00D  GRAD.:    12.776 HEAT: -162.5849
 CYCLE:    25 TIME:   0.051 TIME LEFT:  2.00D  GRAD.:    54.950 HEAT: -162.5018
 CYCLE:    26 TIME:   0.047 TIME LEFT:  2.00D  GRAD.:    11.651 HEAT: -162.7618
 CYCLE:    27 TIME:   0.047 TIME LEFT:  2.00D  GRAD.:     8.741 HEAT: -162.8043
 CYCLE:    28 TIME:   0.047 TIME LEFT:  2.00D  GRAD.:    10.088 HEAT: -162.8873
 CYCLE:    29 TIME:   0.047 TIME LEFT:  2.00D  GRAD.:    12.303 HEAT: -162.9933
 CYCLE:    30 TIME:   0.055 TIME LEFT:  2.00D  GRAD.:    19.367 HEAT: -163.0612
 CYCLE:    31 TIME:   0.047 TIME LEFT:  2.00D  GRAD.:     7.733 HEAT: -163.1563
 CYCLE:    32 TIME:   0.047 TIME LEFT:  2.00D  GRAD.:     7.209 HEAT: -163.1877
 CYCLE:    33 TIME:   0.047 TIME LEFT:  2.00D  GRAD.:     7.883 HEAT: -163.2331
 CYCLE:    34 TIME:   0.051 TIME LEFT:  2.00D  GRAD.:    25.111 HEAT: -163.2364
 CYCLE:    35 TIME:   0.047 TIME LEFT:  2.00D  GRAD.:     7.151 HEAT: -163.3230
 CYCLE:    36 TIME:   0.051 TIME LEFT:  2.00D  GRAD.:     5.197 HEAT: -163.3440
 CYCLE:    37 TIME:   0.047 TIME LEFT:  2.00D  GRAD.:     6.794 HEAT: -163.3730
 CYCLE:    38 TIME:   0.047 TIME LEFT:  2.00D  GRAD.:     8.368 HEAT: -163.4192
 CYCLE:    39 TIME:   0.051 TIME LEFT:  2.00D  GRAD.:    28.725 HEAT: -163.4115
 CYCLE:    40 TIME:   0.047 TIME LEFT:  2.00D  GRAD.:     7.872 HEAT: -163.5211
 CYCLE:    41 TIME:   0.047 TIME LEFT:  2.00D  GRAD.:     5.549 HEAT: -163.5498
 CYCLE:    42 TIME:   0.047 TIME LEFT:  2.00D  GRAD.:    10.900 HEAT: -163.5849
 CYCLE:    43 TIME:   0.047 TIME LEFT:  2.00D  GRAD.:     7.902 HEAT: -163.6142
 CYCLE:    44 TIME:   0.047 TIME LEFT:  2.00D  GRAD.:     6.191 HEAT: -163.6380
 CYCLE:    45 TIME:   0.047 TIME LEFT:  2.00D  GRAD.:     6.949 HEAT: -163.6826
 CYCLE:    46 TIME:   0.047 TIME LEFT:  2.00D  GRAD.:    15.532 HEAT: -163.6926
 CYCLE:    47 TIME:   0.047 TIME LEFT:  2.00D  GRAD.:     6.460 HEAT: -163.7307
 CYCLE:    48 TIME:   0.047 TIME LEFT:  2.00D  GRAD.:     5.192 HEAT: -163.7580
 CYCLE:    49 TIME:   0.047 TIME LEFT:  2.00D  GRAD.:     7.193 HEAT: -163.7899
 CYCLE:    50 TIME:   0.051 TIME LEFT:  2.00D  GRAD.:     9.379 HEAT: -163.8421
 CYCLE:    51 TIME:   0.047 TIME LEFT:  2.00D  GRAD.:    10.729 HEAT: -163.8896
 CYCLE:    52 TIME:   0.051 TIME LEFT:  2.00D  GRAD.:     8.966 HEAT: -163.9443
 CYCLE:    53 TIME:   0.051 TIME LEFT:  2.00D  GRAD.:    10.586 HEAT: -164.0019
 CYCLE:    54 TIME:   0.051 TIME LEFT:  2.00D  GRAD.:    11.083 HEAT: -164.0654
 CYCLE:    55 TIME:   0.051 TIME LEFT:  2.00D  GRAD.:    13.270 HEAT: -164.1367
 CYCLE:    56 TIME:   0.051 TIME LEFT:  2.00D  GRAD.:    30.694 HEAT: -164.1674
 CYCLE:    57 TIME:   0.051 TIME LEFT:  2.00D  GRAD.:    81.422 HEAT: -163.6929
 CYCLE:    58 TIME:   0.051 TIME LEFT:  2.00D  GRAD.:    17.213 HEAT: -164.2973
 CYCLE:    59 TIME:   0.051 TIME LEFT:  2.00D  GRAD.:    12.480 HEAT: -164.2370
 CYCLE:    60 TIME:   0.051 TIME LEFT:  2.00D  GRAD.:     7.117 HEAT: -164.3949
 CYCLE:    61 TIME:   0.055 TIME LEFT:  2.00D  GRAD.:    16.501 HEAT: -164.3617
 CYCLE:    62 TIME:   0.051 TIME LEFT:  2.00D  GRAD.:     9.371 HEAT: -164.4625
 CYCLE:    63 TIME:   0.051 TIME LEFT:  2.00D  GRAD.:    14.998 HEAT: -164.4871
 CYCLE:    64 TIME:   0.051 TIME LEFT:  2.00D  GRAD.:     7.495 HEAT: -164.5322
 CYCLE:    65 TIME:   0.047 TIME LEFT:  2.00D  GRAD.:    14.474 HEAT: -164.5745
 CYCLE:    66 TIME:   0.047 TIME LEFT:  2.00D  GRAD.:     6.386 HEAT: -164.6201
 CYCLE:    67 TIME:   0.047 TIME LEFT:  2.00D  GRAD.:     6.108 HEAT: -164.6379
 CYCLE:    68 TIME:   0.047 TIME LEFT:  2.00D  GRAD.:     6.965 HEAT: -164.6569
 CYCLE:    69 TIME:   0.051 TIME LEFT:  2.00D  GRAD.:    13.377 HEAT: -164.6974
 CYCLE:    70 TIME:   0.051 TIME LEFT:  2.00D  GRAD.:     5.883 HEAT: -164.7407
 CYCLE:    71 TIME:   0.047 TIME LEFT:  2.00D  GRAD.:     4.267 HEAT: -164.7603
 CYCLE:    72 TIME:   0.051 TIME LEFT:  2.00D  GRAD.:     6.118 HEAT: -164.7761
 CYCLE:    73 TIME:   0.047 TIME LEFT:  2.00D  GRAD.:    10.365 HEAT: -164.7909
 CYCLE:    74 TIME:   0.051 TIME LEFT:  2.00D  GRAD.:     6.870 HEAT: -164.8125
 CYCLE:    75 TIME:   0.051 TIME LEFT:  2.00D  GRAD.:     6.321 HEAT: -164.8238
 CYCLE:    76 TIME:   0.047 TIME LEFT:  2.00D  GRAD.:    10.225 HEAT: -164.8412
 CYCLE:    77 TIME:   0.047 TIME LEFT:  2.00D  GRAD.:     7.318 HEAT: -164.8597
 CYCLE:    78 TIME:   0.047 TIME LEFT:  2.00D  GRAD.:     3.591 HEAT: -164.8815
 CYCLE:    79 TIME:   0.047 TIME LEFT:  2.00D  GRAD.:     5.231 HEAT: -164.9037
 CYCLE:    80 TIME:   0.051 TIME LEFT:  2.00D  GRAD.:     8.030 HEAT: -164.9259
 CYCLE:    81 TIME:   0.051 TIME LEFT:  2.00D  GRAD.:    16.275 HEAT: -164.9396
 CYCLE:    82 TIME:   0.047 TIME LEFT:  2.00D  GRAD.:     6.827 HEAT: -164.9793
 CYCLE:    83 TIME:   0.047 TIME LEFT:  2.00D  GRAD.:     5.382 HEAT: -165.0054
 CYCLE:    84 TIME:   0.047 TIME LEFT:  2.00D  GRAD.:     6.583 HEAT: -165.0231
 CYCLE:    85 TIME:   0.051 TIME LEFT:  2.00D  GRAD.:     8.837 HEAT: -165.0507
 CYCLE:    86 TIME:   0.051 TIME LEFT:  2.00D  GRAD.:    32.319 HEAT: -164.9465
 CYCLE:    87 TIME:   0.047 TIME LEFT:  2.00D  GRAD.:     8.398 HEAT: -165.1093
 CYCLE:    88 TIME:   0.051 TIME LEFT:  2.00D  GRAD.:     4.220 HEAT: -165.1275
 CYCLE:    89 TIME:   0.047 TIME LEFT:  2.00D  GRAD.:     4.096 HEAT: -165.1617
 CYCLE:    90 TIME:   0.059 TIME LEFT:  2.00D  GRAD.:     8.124 HEAT: -165.2142
 CYCLE:    91 TIME:   0.055 TIME LEFT:  2.00D  GRAD.:    53.157 HEAT: -164.9889
 CYCLE:    92 TIME:   0.055 TIME LEFT:  2.00D  GRAD.:    28.682 HEAT: -165.1577
 CYCLE:    93 TIME:   0.051 TIME LEFT:  2.00D  GRAD.:     6.064 HEAT: -165.2806
 CYCLE:    94 TIME:   0.047 TIME LEFT:  2.00D  GRAD.:     6.806 HEAT: -165.2978
 CYCLE:    95 TIME:   0.059 TIME LEFT:  2.00D  GRAD.:    12.725 HEAT: -165.3668
 CYCLE:    96 TIME:   0.051 TIME LEFT:  2.00D  GRAD.:    16.854 HEAT: -165.3985
 CYCLE:    97 TIME:   0.051 TIME LEFT:  2.00D  GRAD.:     8.568 HEAT: -165.4835
 CYCLE:    98 TIME:   0.051 TIME LEFT:  2.00D  GRAD.:    14.651 HEAT: -165.5403
 CYCLE:    99 TIME:   0.059 TIME LEFT:  2.00D  GRAD.:    16.602 HEAT: -165.5851
 CYCLE:   100 TIME:   0.055 TIME LEFT:  2.00D  GRAD.:    23.181 HEAT: -165.6187
 CYCLE:   101 TIME:   0.047 TIME LEFT:  2.00D  GRAD.:     8.091 HEAT: -165.7513
 CYCLE:   102 TIME:   0.047 TIME LEFT:  2.00D  GRAD.:     7.326 HEAT: -165.8017
 CYCLE:   103 TIME:   0.051 TIME LEFT:  2.00D  GRAD.:    11.508 HEAT: -165.8792
 CYCLE:   104 TIME:   0.059 TIME LEFT:  2.00D  GRAD.:    21.058 HEAT: -165.9401
 CYCLE:   105 TIME:   0.047 TIME LEFT:  2.00D  GRAD.:    12.366 HEAT: -166.0206
 CYCLE:   106 TIME:   0.051 TIME LEFT:  2.00D  GRAD.:    12.091 HEAT: -166.0808
 CYCLE:   107 TIME:   0.051 TIME LEFT:  2.00D  GRAD.:    15.313 HEAT: -166.1662
 CYCLE:   108 TIME:   0.055 TIME LEFT:  2.00D  GRAD.:    15.233 HEAT: -166.2215
 CYCLE:   109 TIME:   0.055 TIME LEFT:  2.00D  GRAD.:     9.296 HEAT: -166.3847
 CYCLE:   110 TIME:   0.055 TIME LEFT:  2.00D  GRAD.:    13.078 HEAT: -166.5540
 CYCLE:   111 TIME:   0.051 TIME LEFT:  2.00D  GRAD.:    19.806 HEAT: -166.6693
 CYCLE:   112 TIME:   0.059 TIME LEFT:  2.00D  GRAD.:    16.950 HEAT: -166.8215
 CYCLE:   113 TIME:   0.047 TIME LEFT:  2.00D  GRAD.:    15.922 HEAT: -166.9161
 CYCLE:   114 TIME:   0.055 TIME LEFT:  2.00D  GRAD.:    11.505 HEAT: -166.9933
 CYCLE:   115 TIME:   0.051 TIME LEFT:  2.00D  GRAD.:    10.571 HEAT: -167.0989
 CYCLE:   116 TIME:   0.055 TIME LEFT:  2.00D  GRAD.:    12.375 HEAT: -167.2114
 CYCLE:   117 TIME:   0.051 TIME LEFT:  2.00D  GRAD.:    35.356 HEAT: -167.1625
 CYCLE:   118 TIME:   0.051 TIME LEFT:  2.00D  GRAD.:    10.905 HEAT: -167.4004
 CYCLE:   119 TIME:   0.051 TIME LEFT:  2.00D  GRAD.:     7.953 HEAT: -167.4654
 CYCLE:   120 TIME:   0.062 TIME LEFT:  2.00D  GRAD.:    10.490 HEAT: -167.5458
 CYCLE:   121 TIME:   0.051 TIME LEFT:  2.00D  GRAD.:    18.729 HEAT: -167.6310
 CYCLE:   122 TIME:   0.051 TIME LEFT:  2.00D  GRAD.:    16.473 HEAT: -167.7150
 CYCLE:   123 TIME:   0.051 TIME LEFT:  2.00D  GRAD.:     8.052 HEAT: -167.7822
 CYCLE:   124 TIME:   0.047 TIME LEFT:  2.00D  GRAD.:     7.854 HEAT: -167.8355
 CYCLE:   125 TIME:   0.051 TIME LEFT:  2.00D  GRAD.:    11.059 HEAT: -167.9070
 CYCLE:   126 TIME:   0.051 TIME LEFT:  2.00D  GRAD.:    19.765 HEAT: -167.9753
 CYCLE:   127 TIME:   0.047 TIME LEFT:  2.00D  GRAD.:     9.802 HEAT: -168.0633
 CYCLE:   128 TIME:   0.055 TIME LEFT:  2.00D  GRAD.:    13.007 HEAT: -168.1183
 CYCLE:   129 TIME:   0.051 TIME LEFT:  2.00D  GRAD.:     9.893 HEAT: -168.1754
 CYCLE:   130 TIME:   0.047 TIME LEFT:  2.00D  GRAD.:     9.416 HEAT: -168.2300
 CYCLE:   131 TIME:   0.051 TIME LEFT:  2.00D  GRAD.:    14.909 HEAT: -168.2917
 CYCLE:   132 TIME:   0.051 TIME LEFT:  2.00D  GRAD.:     9.024 HEAT: -168.3398
 CYCLE:   133 TIME:   0.051 TIME LEFT:  2.00D  GRAD.:     8.391 HEAT: -168.3774
 CYCLE:   134 TIME:   0.047 TIME LEFT:  2.00D  GRAD.:     9.899 HEAT: -168.4349
 CYCLE:   135 TIME:   0.043 TIME LEFT:  2.00D  GRAD.:     8.416 HEAT: -168.4744
 CYCLE:   136 TIME:   0.066 TIME LEFT:  2.00D  GRAD.:     9.072 HEAT: -168.5202
 CYCLE:   137 TIME:   0.055 TIME LEFT:  2.00D  GRAD.:    15.559 HEAT: -168.5127
 CYCLE:   138 TIME:   0.051 TIME LEFT:  2.00D  GRAD.:     9.809 HEAT: -168.6138
 CYCLE:   139 TIME:   0.051 TIME LEFT:  2.00D  GRAD.:     6.151 HEAT: -168.6422
 CYCLE:   140 TIME:   0.047 TIME LEFT:  2.00D  GRAD.:     5.031 HEAT: -168.6645
 CYCLE:   141 TIME:   0.055 TIME LEFT:  2.00D  GRAD.:     8.163 HEAT: -168.6936
 CYCLE:   142 TIME:   0.051 TIME LEFT:  2.00D  GRAD.:    56.632 HEAT: -168.1565
 CYCLE:   143 TIME:   0.051 TIME LEFT:  2.00D  GRAD.:     5.943 HEAT: -168.7668
 CYCLE:   144 TIME:   0.051 TIME LEFT:  2.00D  GRAD.:     4.902 HEAT: -168.7839
 CYCLE:   145 TIME:   0.055 TIME LEFT:  2.00D  GRAD.:     7.026 HEAT: -168.8169
 CYCLE:   146 TIME:   0.051 TIME LEFT:  2.00D  GRAD.:    17.633 HEAT: -168.8370
 CYCLE:   147 TIME:   0.047 TIME LEFT:  2.00D  GRAD.:     7.036 HEAT: -168.8908
 CYCLE:   148 TIME:   0.051 TIME LEFT:  2.00D  GRAD.:     5.022 HEAT: -168.9119
 CYCLE:   149 TIME:   0.051 TIME LEFT:  2.00D  GRAD.:     8.477 HEAT: -168.9460
 CYCLE:   150 TIME:   0.047 TIME LEFT:  2.00D  GRAD.:     9.165 HEAT: -168.9672
 CYCLE:   151 TIME:   0.051 TIME LEFT:  2.00D  GRAD.:     5.217 HEAT: -168.9948
 CYCLE:   152 TIME:   0.047 TIME LEFT:  2.00D  GRAD.:     5.136 HEAT: -169.0070
 CYCLE:   153 TIME:   0.047 TIME LEFT:  2.00D  GRAD.:     4.656 HEAT: -169.0200
 CYCLE:   154 TIME:   0.051 TIME LEFT:  2.00D  GRAD.:     9.326 HEAT: -169.0336
 CYCLE:   155 TIME:   0.051 TIME LEFT:  2.00D  GRAD.:     4.696 HEAT: -169.0490
 CYCLE:   156 TIME:   0.051 TIME LEFT:  2.00D  GRAD.:     4.000 HEAT: -169.0586
 CYCLE:   157 TIME:   0.051 TIME LEFT:  2.00D  GRAD.:     4.491 HEAT: -169.0660
 CYCLE:   158 TIME:   0.047 TIME LEFT:  2.00D  GRAD.:     8.215 HEAT: -169.0849
 CYCLE:   159 TIME:   0.047 TIME LEFT:  2.00D  GRAD.:     5.135 HEAT: -169.0992
 CYCLE:   160 TIME:   0.047 TIME LEFT:  2.00D  GRAD.:     3.052 HEAT: -169.1058
 CYCLE:   161 TIME:   0.047 TIME LEFT:  2.00D  GRAD.:     3.431 HEAT: -169.1120
 CYCLE:   162 TIME:   0.051 TIME LEFT:  2.00D  GRAD.:     3.558 HEAT: -169.1174
 CYCLE:   163 TIME:   0.051 TIME LEFT:  2.00D  GRAD.:     9.601 HEAT: -169.1234
 CYCLE:   164 TIME:   0.047 TIME LEFT:  2.00D  GRAD.:     4.430 HEAT: -169.1337
 CYCLE:   165 TIME:   0.051 TIME LEFT:  2.00D  GRAD.:     3.741 HEAT: -169.1323
 CYCLE:   166 TIME:   0.047 TIME LEFT:  2.00D  GRAD.:     3.565 HEAT: -169.1393
 CYCLE:   167 TIME:   0.051 TIME LEFT:  2.00D  GRAD.:     5.876 HEAT: -169.1398
 CYCLE:   168 TIME:   0.051 TIME LEFT:  2.00D  GRAD.:     2.985 HEAT: -169.1487
 CYCLE:   169 TIME:   0.051 TIME LEFT:  2.00D  GRAD.:     6.852 HEAT: -169.1457
 CYCLE:   170 TIME:   0.051 TIME LEFT:  2.00D  GRAD.:     3.529 HEAT: -169.1541
 CYCLE:   171 TIME:   0.051 TIME LEFT:  2.00D  GRAD.:     2.286 HEAT: -169.1574
 CYCLE:   172 TIME:   0.238 TIME LEFT:  2.00D  GRAD.:     3.580 HEAT: -169.1622
 CYCLE:   173 TIME:   0.055 TIME LEFT:  2.00D  GRAD.:     4.410 HEAT: -169.1672
 CYCLE:   174 TIME:   0.047 TIME LEFT:  2.00D  GRAD.:     4.770 HEAT: -169.1735
 CYCLE:   175 TIME:   0.051 TIME LEFT:  2.00D  GRAD.:     5.234 HEAT: -169.1644
 CYCLE:   176 TIME:   0.047 TIME LEFT:  2.00D  GRAD.:    12.702 HEAT: -169.1714
 CYCLE:   177 TIME:   0.051 TIME LEFT:  2.00D  GRAD.:     5.552 HEAT: -169.1945
 CYCLE:   178 TIME:   0.051 TIME LEFT:  2.00D  GRAD.:     3.056 HEAT: -169.1985
 CYCLE:   179 TIME:   0.047 TIME LEFT:  2.00D  GRAD.:     3.183 HEAT: -169.2030
 CYCLE:   180 TIME:   0.055 TIME LEFT:  2.00D  GRAD.:    16.928 HEAT: -169.1822
 CYCLE:   181 TIME:   0.051 TIME LEFT:  2.00D  GRAD.:     3.005 HEAT: -169.2078
 CYCLE:   182 TIME:   0.055 TIME LEFT:  2.00D  GRAD.:    16.189 HEAT: -169.1769
 CYCLE:   183 TIME:   0.055 TIME LEFT:  2.00D  GRAD.:    21.889 HEAT: -169.1669
 CYCLE:   184 TIME:   0.055 TIME LEFT:  2.00D  GRAD.:    42.628 HEAT: -168.8831
 CYCLE:   185 TIME:   0.055 TIME LEFT:  2.00D  GRAD.:    30.450 HEAT: -169.0080
 CYCLE:   186 TIME:   0.055 TIME LEFT:  2.00D  GRAD.:    26.708 HEAT: -169.1372
 CYCLE:   187 TIME:   0.062 TIME LEFT:  2.00D  GRAD.:    33.324 HEAT: -169.0887
 CYCLE:   188 TIME:   0.055 TIME LEFT:  2.00D  GRAD.:     6.623 HEAT: -169.2281
 CYCLE:   189 TIME:   0.047 TIME LEFT:  2.00D  GRAD.:     3.486 HEAT: -169.2323
 CYCLE:   190 TIME:   0.047 TIME LEFT:  2.00D  GRAD.:     5.468 HEAT: -169.2338
 CYCLE:   191 TIME:   0.047 TIME LEFT:  2.00D  GRAD.:     2.672 HEAT: -169.2372
 CYCLE:   192 TIME:   0.047 TIME LEFT:  2.00D  GRAD.:     2.347 HEAT: -169.2397
 CYCLE:   193 TIME:   0.047 TIME LEFT:  2.00D  GRAD.:     3.628 HEAT: -169.2438
 CYCLE:   194 TIME:   0.047 TIME LEFT:  2.00D  GRAD.:     5.581 HEAT: -169.2564
 CYCLE:   195 TIME:   0.051 TIME LEFT:  2.00D  GRAD.:     8.136 HEAT: -169.2549
 CYCLE:   196 TIME:   0.051 TIME LEFT:  2.00D  GRAD.:     6.560 HEAT: -169.2592
 CYCLE:   197 TIME:   0.047 TIME LEFT:  2.00D  GRAD.:     4.444 HEAT: -169.2760
 CYCLE:   198 TIME:   0.055 TIME LEFT:  2.00D  GRAD.:     5.612 HEAT: -169.2562
 CYCLE:   199 TIME:   0.051 TIME LEFT:  2.00D  GRAD.:     6.530 HEAT: -169.2773
 CYCLE:   200 TIME:   0.051 TIME LEFT:  2.00D  GRAD.:     4.872 HEAT: -169.2766
 CYCLE:   201 TIME:   0.047 TIME LEFT:  2.00D  GRAD.:     6.151 HEAT: -169.2792
 CYCLE:   202 TIME:   0.055 TIME LEFT:  2.00D  GRAD.:     3.549 HEAT: -169.2957
 CYCLE:   203 TIME:   0.047 TIME LEFT:  2.00D  GRAD.:     3.092 HEAT: -169.2971
 CYCLE:   204 TIME:   0.051 TIME LEFT:  2.00D  GRAD.:     6.542 HEAT: -169.2994
 CYCLE:   205 TIME:   0.051 TIME LEFT:  2.00D  GRAD.:     4.043 HEAT: -169.3068
 CYCLE:   206 TIME:   0.055 TIME LEFT:  2.00D  GRAD.:     3.689 HEAT: -169.3045
 CYCLE:   207 TIME:   0.047 TIME LEFT:  2.00D  GRAD.:     4.229 HEAT: -169.3111
 CYCLE:   208 TIME:   0.051 TIME LEFT:  2.00D  GRAD.:    13.911 HEAT: -169.2282
 CYCLE:   209 TIME:   0.059 TIME LEFT:  2.00D  GRAD.:    14.275 HEAT: -169.3123
 CYCLE:   210 TIME:   0.047 TIME LEFT:  2.00D  GRAD.:     9.039 HEAT: -169.3211
 CYCLE:   211 TIME:   0.047 TIME LEFT:  2.00D  GRAD.:     1.768 HEAT: -169.3299
 CYCLE:   212 TIME:   0.047 TIME LEFT:  2.00D  GRAD.:     1.669 HEAT: -169.3309
 CYCLE:   213 TIME:   0.055 TIME LEFT:  2.00D  GRAD.:     3.002 HEAT: -169.3315
 CYCLE:   214 TIME:   0.047 TIME LEFT:  2.00D  GRAD.:     2.217 HEAT: -169.3349
 CYCLE:   215 TIME:   0.051 TIME LEFT:  2.00D  GRAD.:     3.103 HEAT: -169.3382
 CYCLE:   216 TIME:   0.047 TIME LEFT:  2.00D  GRAD.:     2.361 HEAT: -169.3410
 CYCLE:   217 TIME:   0.055 TIME LEFT:  2.00D  GRAD.:     4.952 HEAT: -169.3429
 CYCLE:   218 TIME:   0.047 TIME LEFT:  2.00D  GRAD.:     1.532 HEAT: -169.3464
 CYCLE:   219 TIME:   0.051 TIME LEFT:  2.00D  GRAD.:     1.296 HEAT: -169.3468
 CYCLE:   220 TIME:   0.047 TIME LEFT:  2.00D  GRAD.:     1.147 HEAT: -169.3482
 CYCLE:   221 TIME:   0.055 TIME LEFT:  2.00D  GRAD.:     5.239 HEAT: -169.3487
 CYCLE:   222 TIME:   0.047 TIME LEFT:  2.00D  GRAD.:     2.330 HEAT: -169.3527
 CYCLE:   223 TIME:   0.051 TIME LEFT:  2.00D  GRAD.:     1.216 HEAT: -169.3532
 CYCLE:   224 TIME:   0.051 TIME LEFT:  2.00D  GRAD.:     1.147 HEAT: -169.3543
 CYCLE:   225 TIME:   0.059 TIME LEFT:  2.00D  GRAD.:     4.913 HEAT: -169.3526
 CYCLE:   226 TIME:   0.051 TIME LEFT:  2.00D  GRAD.:     1.880 HEAT: -169.3589
 CYCLE:   227 TIME:   0.051 TIME LEFT:  2.00D  GRAD.:     2.368 HEAT: -169.3581
 CYCLE:   228 TIME:   0.047 TIME LEFT:  2.00D  GRAD.:     1.857 HEAT: -169.3608
 CYCLE:   229 TIME:   0.055 TIME LEFT:  2.00D  GRAD.:     6.111 HEAT: -169.3563
 CYCLE:   230 TIME:   0.051 TIME LEFT:  2.00D  GRAD.:     3.628 HEAT: -169.3596
 CYCLE:   231 TIME:   0.047 TIME LEFT:  2.00D  GRAD.:     0.951 HEAT: -169.3641

 -------------------------------------------------------------------------------
 PM7 XYZ

 Lipophilicity_1764 - geometry optimisation


     HERBERTS TEST WAS SATISFIED IN BFGS                      
     SCF FIELD WAS ACHIEVED                                   


                              PM7 CALCULATION
                                                       MOPAC v23.0.3 Linux
                                                       Fri Jul 25 18:07:43 2025




          FINAL HEAT OF FORMATION =       -169.36415 KCAL/MOL =    -708.61959 KJ/MOL


          COSMO AREA              =        438.63 SQUARE ANGSTROMS
          COSMO VOLUME            =        521.45 CUBIC ANGSTROMS

          GRADIENT NORM           =          0.95113          =       0.12489 PER ATOM
          IONIZATION POTENTIAL    =          9.109159 EV
          HOMO LUMO ENERGIES (EV) =         -9.109 -0.826
          NO. OF FILLED LEVELS    =         87
          MOLECULAR WEIGHT        =        458.4823         POINT GROUP:  C1  

          MOLECULAR DIMENSIONS (Angstroms)

            Atom       Atom       Distance
            N    33    F     4    12.58896
            H    40    H    56     9.37367
            H    35    H    47     8.56613


          SCF CALCULATIONS        =        232

          WALL-CLOCK TIME         =     11.895 SECONDS
          COMPUTATION TIME        =          3 MINUTES AND 57.121 SECONDS




   ATOM   CHEMICAL          X               Y               Z
  NUMBER   SYMBOL      (ANGSTROMS)     (ANGSTROMS)     (ANGSTROMS)

     1       F         -4.46362570  *   5.19464819  *  -0.93882652  *
     2       C         -4.28585388  *   4.02410440  *  -1.55329896  *
     3       F         -3.17727187  *   4.21139100  *  -2.27134713  *
     4       F         -5.26077610  *   3.97888638  *  -2.46355349  *
     5       C         -4.26171609  *   2.83432636  *  -0.64349886  *
     6       C         -5.13188089  *   2.82540298  *   0.46888796  *
     7       C         -5.16556390  *   1.75421816  *   1.34074054  *
     8       C         -4.30995583  *   0.67759393  *   1.07459169  *
     9       N         -4.13135327  *  -0.51877040  *   1.76790435  *
    10       C         -3.16851094  *  -1.27135794  *   1.08933283  *
    11       C         -2.67592301  *  -2.60168321  *   1.50097840  *
    12       C         -1.93559479  *  -3.22615217  *   0.28686413  *
    13       N         -1.01417111  *  -2.26940853  *  -0.35631155  *
    14       C         -1.71302858  *  -1.11650056  *  -0.96193442  *
    15       C         -2.72669040  *  -0.57084910  *  -0.02432880  *
    16       C         -3.43208768  *   0.67321179  *  -0.06337007  *
    17       C         -3.41940180  *   1.76997102  *  -0.92475947  *
    18       C          0.22745664  *  -2.10453734  *   0.27727792  *
    19       O          0.50188627  *  -2.82555032  *   1.21560619  *
    20       C          1.22322639  *  -1.10454088  *  -0.29696971  *
    21       C          1.53489076  *  -1.43106620  *  -1.76619873  *
    22       C          2.25887047  *  -2.77591352  *  -1.89270635  *
    23       C          3.58000389  *  -2.73263808  *  -1.11866795  *
    24       C          3.33105094  *  -2.41495644  *   0.35843631  *
    25       C          2.50544709  *  -1.13331536  *   0.56383825  *
    26       C          3.35157177  *   0.07992004  *   0.20897765  *
    27       O          4.02289549  *   0.20033843  *  -0.78870064  *
    28       N          3.28187681  *   1.12742003  *   1.12971636  *
    29       C          4.09080306  *   2.30514649  *   0.96556031  *
    30       C          3.39875695  *   3.64369395  *   0.68491357  *
    31       C          4.20160543  *   2.98481712  *  -0.39854331  *
    32       C          5.25506826  *   2.30910557  *   1.81780394  *
    33       N          6.18514957  *   2.30709305  *   2.50412174  *
    34       H         -5.79654322  *   3.67463883  *   0.64604532  *
    35       H         -5.83058629  *   1.74174448  *   2.19834127  *
    36       H         -4.60659746  *  -0.78924928  *   2.59764707  *
    37       H         -1.96545486  *  -2.51380637  *   2.35618986  *
    38       H         -3.48448623  *  -3.27477937  *   1.84213441  *
    39       H         -2.67097350  *  -3.56119721  *  -0.47750445  *
    40       H         -1.36037961  *  -4.12354775  *   0.61371016  *
    41       H         -2.20668064  *  -1.47517430  *  -1.90209749  *
    42       H         -0.99051968  *  -0.32891317  *  -1.27416244  *
    43       H         -2.75712202  *   1.75977838  *  -1.79111364  *
    44       H          0.77592663  *  -0.07967165  *  -0.23254922  *
    45       H          2.17606006  *  -0.62759962  *  -2.18949924  *
    46       H          0.61075269  *  -1.44143332  *  -2.37156091  *
    47       H          2.44772967  *  -3.00427517  *  -2.95735648  *
    48       H          1.61702429  *  -3.59345334  *  -1.51300133  *
    49       H          4.25239872  *  -1.96844396  *  -1.56243913  *
    50       H          4.11005619  *  -3.69775972  *  -1.21169585  *
    51       H          4.29576160  *  -2.33012889  *   0.89443381  *
    52       H          2.78882249  *  -3.26152791  *   0.83424252  *
    53       H          2.20309151  *  -1.10363146  *   1.64427300  *
    54       H          2.77010336  *   1.05441648  *   1.99582517  *
    55       H          2.31269920  *   3.67007435  *   0.61530696  *
    56       H          3.76460306  *   4.54718130  *   1.16726612  *
    57       H          3.70641671  *   2.52659942  *  -1.25713373  *
    58       H          5.16080130  *   3.39615041  *  -0.70866180  *

                             CARTESIAN COORDINATES

   1    F       -4.463625698     5.194648194    -0.938826515
   2    C       -4.285853883     4.024104400    -1.553298962
   3    F       -3.177271874     4.211390996    -2.271347132
   4    F       -5.260776104     3.978886379    -2.463553489
   5    C       -4.261716089     2.834326362    -0.643498862
   6    C       -5.131880891     2.825402980     0.468887964
   7    C       -5.165563900     1.754218159     1.340740543
   8    C       -4.309955827     0.677593935     1.074591691
   9    N       -4.131353270    -0.518770401     1.767904348
  10    C       -3.168510942    -1.271357937     1.089332825
  11    C       -2.675923012    -2.601683207     1.500978395
  12    C       -1.935594792    -3.226152175     0.286864125
  13    N       -1.014171112    -2.269408529    -0.356311548
  14    C       -1.713028583    -1.116500564    -0.961934422
  15    C       -2.726690402    -0.570849097    -0.024328800
  16    C       -3.432087678     0.673211788    -0.063370071
  17    C       -3.419401803     1.769971022    -0.924759469
  18    C        0.227456636    -2.104537341     0.277277922
  19    O        0.501886265    -2.825550319     1.215606191
  20    C        1.223226388    -1.104540877    -0.296969709
  21    C        1.534890757    -1.431066197    -1.766198726
  22    C        2.258870474    -2.775913519    -1.892706354
  23    C        3.580003893    -2.732638077    -1.118667946
  24    C        3.331050944    -2.414956441     0.358436308
  25    C        2.505447087    -1.133315361     0.563838253
  26    C        3.351571774     0.079920037     0.208977653
  27    O        4.022895493     0.200338431    -0.788700638
  28    N        3.281876809     1.127420032     1.129716358
  29    C        4.090803062     2.305146487     0.965560309
  30    C        3.398756952     3.643693954     0.684913570
  31    C        4.201605432     2.984817121    -0.398543310
  32    C        5.255068260     2.309105565     1.817803936
  33    N        6.185149573     2.307093049     2.504121742
  34    H       -5.796543221     3.674638825     0.646045323
  35    H       -5.830586289     1.741744478     2.198341268
  36    H       -4.606597464    -0.789249281     2.597647069
  37    H       -1.965454864    -2.513806367     2.356189856
  38    H       -3.484486230    -3.274779365     1.842134407
  39    H       -2.670973495    -3.561197213    -0.477504451
  40    H       -1.360379611    -4.123547748     0.613710160
  41    H       -2.206680636    -1.475174297    -1.902097494
  42    H       -0.990519679    -0.328913174    -1.274162437
  43    H       -2.757122016     1.759778384    -1.791113641
  44    H        0.775926627    -0.079671654    -0.232549223
  45    H        2.176060065    -0.627599616    -2.189499238
  46    H        0.610752688    -1.441433315    -2.371560914
  47    H        2.447729665    -3.004275174    -2.957356476
  48    H        1.617024288    -3.593453340    -1.513001335
  49    H        4.252398720    -1.968443962    -1.562439125
  50    H        4.110056186    -3.697759717    -1.211695848
  51    H        4.295761595    -2.330128888     0.894433807
  52    H        2.788822487    -3.261527909     0.834242517
  53    H        2.203091507    -1.103631463     1.644272997
  54    H        2.770103359     1.054416484     1.995825174
  55    H        2.312699196     3.670074349     0.615306963
  56    H        3.764603065     4.547181298     1.167266119
  57    H        3.706416712     2.526599415    -1.257133732
  58    H        5.160801305     3.396150407    -0.708661802


           Empirical Formula: C24 H25 N4 O2 F3  =    58 atoms



      MOLECULAR POINT GROUP   :   C1  


                  EIGENVALUES  
 -41.80089 -41.34556 -41.30129 -38.33180 -37.35408 -36.75648 -34.99433 -31.40697
 -31.06951 -30.67196 -30.47896 -29.77264 -28.86861 -28.04271 -27.13287 -26.68651
 -26.41374 -25.75669 -24.67881 -24.09424 -23.67552 -22.91563 -22.12020 -21.76170
 -21.40992 -21.32200 -20.93265 -20.43552 -20.31755 -19.55830 -19.17985 -18.95312
 -18.92821 -18.67120 -18.29974 -18.23383 -17.27362 -17.20550 -17.04751 -16.80096
 -16.55721 -16.48734 -16.42847 -16.23362 -16.17491 -15.93426 -15.84499 -15.61080
 -15.50370 -15.42019 -15.32875 -15.24752 -15.15046 -15.01220 -14.85863 -14.72367
 -14.52917 -14.37084 -14.34417 -14.22938 -13.92898 -13.82728 -13.78075 -13.71598
 -13.53731 -13.29196 -13.17904 -13.14271 -13.07968 -12.93736 -12.90386 -12.67361
 -12.61205 -12.50806 -12.43465 -12.22771 -11.65759 -11.48551 -11.27018 -11.23034
 -11.22275 -10.78553 -10.41383 -10.22757  -9.82498  -9.68893  -9.10916  -0.82583
  -0.46826   0.69990   0.71916   0.72536   0.81944   1.01814   1.35567   1.62614
   1.73954   1.74930   1.79831   2.06770   2.31697   2.76744   2.79822   2.86361
   2.93051   2.99503   3.15809   3.19242   3.23250   3.34250   3.38634   3.60305
   3.61393   3.66974   3.78054   3.98194   4.04511   4.06671   4.17062   4.19825
   4.26132   4.41750   4.44451   4.45863   4.53026   4.59781   4.73768   4.84137
   4.87300   4.95318   4.98787   5.01892   5.05330   5.13944   5.22399   5.31506
   5.36346   5.44729   5.50989   5.53448   5.55799   5.56979   5.62589   5.63727
   5.66846   5.76111   5.76874   5.82046   5.90004   5.92985   6.01560   6.08166
   6.13259   6.37785   6.61573   6.66031   6.88930


              NET ATOMIC CHARGES AND DIPOLE CONTRIBUTIONS

  ATOM NO.   TYPE          CHARGE      No. of ELECS.   s-Pop       p-Pop       
    1          F          -0.207392        7.2074     1.96815     5.23925
    2          C           0.560928        3.4391     1.15009     2.28898
    3          F          -0.210577        7.2106     1.96803     5.24254
    4          F          -0.206785        7.2068     1.96843     5.23835
    5          C          -0.178907        4.1789     1.05963     3.11928
    6          C          -0.068861        4.0689     1.08204     2.98682
    7          C          -0.214765        4.2148     1.07166     3.14311
    8          C           0.130159        3.8698     1.05983     2.81002
    9          N          -0.383906        5.3839     1.51374     3.87017
   10          C           0.130449        3.8696     1.06614     2.80341
   11          C          -0.326987        4.3270     1.06079     3.26619
   12          C          -0.053915        4.0539     1.06868     2.98523
   13          N          -0.492670        5.4927     1.62048     3.87219
   14          C          -0.044791        4.0448     1.05510     2.98970
   15          C          -0.187245        4.1872     1.05748     3.12977
   16          C          -0.081832        4.0818     1.05350     3.02833
   17          C          -0.049550        4.0496     1.08201     2.96754
   18          C           0.576634        3.4234     1.10605     2.31731
   19          O          -0.541030        6.5410     1.87938     4.66165
   20          C          -0.179335        4.1793     1.07579     3.10354
   21          C          -0.263198        4.2632     1.06128     3.20192
   22          C          -0.262289        4.2623     1.05775     3.20454
   23          C          -0.264072        4.2641     1.05841     3.20566
   24          C          -0.253966        4.2540     1.06037     3.19360
   25          C          -0.176481        4.1765     1.07646     3.10002
   26          C           0.585113        3.4149     1.09965     2.31524
   27          O          -0.504980        6.5050     1.87801     4.62697
   28          N          -0.612364        5.6124     1.56261     4.04975
   29          C           0.166224        3.8338     0.99900     2.83477
   30          C          -0.319683        4.3197     1.06251     3.25717
   31          C          -0.266342        4.2663     1.06266     3.20368
   32          C           0.089490        3.9105     1.12102     2.78949
   33          N          -0.226534        5.2265     1.83013     3.39641
   34          H           0.168452        0.8315     0.83155
   35          H           0.166676        0.8333     0.83332
   36          H           0.319412        0.6806     0.68059
   37          H           0.185572        0.8144     0.81443
   38          H           0.162184        0.8378     0.83782
   39          H           0.147372        0.8526     0.85263
   40          H           0.169284        0.8307     0.83072
   41          H           0.161614        0.8384     0.83839
   42          H           0.156009        0.8440     0.84399
   43          H           0.170299        0.8297     0.82970
   44          H           0.156367        0.8436     0.84363
   45          H           0.165002        0.8350     0.83500
   46          H           0.137921        0.8621     0.86208
   47          H           0.133182        0.8668     0.86682
   48          H           0.141323        0.8587     0.85868
   49          H           0.164257        0.8357     0.83574
   50          H           0.131353        0.8686     0.86865
   51          H           0.142108        0.8579     0.85789
   52          H           0.166574        0.8334     0.83343
   53          H           0.165674        0.8343     0.83433
   54          H           0.321929        0.6781     0.67807
   55          H           0.175383        0.8246     0.82462
   56          H           0.170263        0.8297     0.82974
   57          H           0.189462        0.8105     0.81054
   58          H           0.171789        0.8282     0.82821
 DIPOLE           X         Y         Z       TOTAL
 POINT-CHG.    -5.397    -3.060     1.025     6.289
 HYBRID        -0.921     0.239     1.212     1.540
 SUM           -6.318    -2.822     2.237     7.272


          ATOMIC ORBITAL ELECTRON POPULATIONS

     Atom    s        px        py        pz   
    1  F   1.96815   1.95821   1.44835   1.83269
    2  C   1.15009   0.71470   0.80566   0.76863
    3  F   1.96803   1.50459   1.96168   1.77627
    4  F   1.96843   1.60729   1.97553   1.65554
    5  C   1.05963   1.08769   0.99656   1.03503
    6  C   1.08204   0.99391   1.03686   0.95605
    7  C   1.07166   1.06532   0.99327   1.08452
    8  C   1.05983   1.00121   0.86538   0.94343
    9  N   1.51374   1.37561   1.20754   1.28703
   10  C   1.06614   0.90903   0.94479   0.94960
   11  C   1.06079   1.13840   1.02096   1.10683
   12  C   1.06868   1.00149   0.98574   0.99800
   13  N   1.62048   1.15245   1.24730   1.47243
   14  C   1.05510   1.01777   0.94563   1.02630
   15  C   1.05748   1.08417   1.00351   1.04209
   16  C   1.05350   1.03085   0.99130   1.00618
   17  C   1.08201   0.98471   0.95556   1.02728
   18  C   1.10605   0.79894   0.78139   0.73698
   19  O   1.87938   1.81507   1.49304   1.35353
   20  C   1.07579   0.99646   1.08031   1.02677
   21  C   1.06128   1.13210   1.08430   0.98552
   22  C   1.05775   1.04595   1.04003   1.11856
   23  C   1.05841   1.04657   1.15718   1.00190
   24  C   1.06037   1.10643   1.03781   1.04936
   25  C   1.07646   0.99704   1.00218   1.10080
   26  C   1.09965   0.76537   0.78949   0.76038
   27  O   1.87801   1.46834   1.79804   1.36059
   28  N   1.56261   1.50721   1.22311   1.31943
   29  C   0.99900   0.92749   0.87087   1.03642
   30  C   1.06251   1.12718   1.02830   1.10169
   31  C   1.06266   1.14234   1.07061   0.99074
   32  C   1.12102   0.92877   0.93182   0.92889
   33  N   1.83013   1.17671   1.07795   1.14175
   34  H   0.83155
   35  H   0.83332
   36  H   0.68059
   37  H   0.81443
   38  H   0.83782
   39  H   0.85263
   40  H   0.83072
   41  H   0.83839
   42  H   0.84399
   43  H   0.82970
   44  H   0.84363
   45  H   0.83500
   46  H   0.86208
   47  H   0.86682
   48  H   0.85868
   49  H   0.83574
   50  H   0.86865
   51  H   0.85789
   52  H   0.83343
   53  H   0.83433
   54  H   0.67807
   55  H   0.82462
   56  H   0.82974
   57  H   0.81054
   58  H   0.82821

 **********************
 *                    *
 * JOB ENDED NORMALLY *
 *                    *
 **********************



 TOTAL JOB TIME:            11.90 SECONDS

 == MOPAC DONE ==
