 *******************************************************************************
 **                                                                           **
 **                              MOPAC v23.0.3                                **
 **                                                                           **
 *******************************************************************************
 **          Digital Object Identifier (DOI): 10.5281/zenodo.6511958          **
 **    Visit the DOI location for information on how to cite this program.    **
 *******************************************************************************

                              PM7 CALCULATION RESULTS

 *******************************************************************************
 *  CALCULATION DONE:                                Fri Jul 25 16:02:32 2025  *
 *  PM7        - The PM7 Hamiltonian to be used
 *  XYZ        - CARTESIAN COORDINATE SYSTEM TO BE USED
 *  T=         - A TIME OF 172800.0 SECONDS REQUESTED
 *  DUMP=N     - RESTART FILE WRITTEN EVERY 7200.0 SECONDS REQUESTED
 *******************************************************************************
PM7 XYZ

 Lipophilicity_1049 - geometry optimisation
   ATOM   CHEMICAL          X               Y               Z
  NUMBER   SYMBOL      (ANGSTROMS)     (ANGSTROMS)     (ANGSTROMS)

     1       C         -6.99718400  *   0.47865900  *  -1.59440000  *
     2       C         -5.81757300  *   0.06250000  *  -2.47248200  *
     3       C         -5.37190400  *  -1.38822800  *  -2.22342400  *
     4       C         -4.71873300  *  -1.59727400  *  -0.85422400  *
     5       O         -3.56920200  *  -0.76548800  *  -0.72507600  *
     6       C         -2.78447200  *  -0.73290800  *   0.42990100  *
     7       N         -3.09900700  *  -1.51778800  *   1.51459500  *
     8       C         -2.34602900  *  -1.50266200  *   2.65501100  *
     9       N         -2.69554200  *  -2.33338600  *   3.76258600  *
    10       C         -1.24206000  *  -0.65608800  *   2.68327900  *
    11       N         -0.32442800  *  -0.45122500  *   3.64653900  *
    12       C          0.51641800  *   0.45957200  *   3.09420300  *
    13       O          1.53663200  *   0.90088900  *   3.68728400  *
    14       N          0.15522300  *   0.83857900  *   1.84053900  *
    15       C          0.86767100  *   1.72359300  *   0.92073400  *
    16       C          1.90313000  *   0.94403400  *   0.15812200  *
    17       C          1.54996400  *   0.26096600  *  -1.01570500  *
    18       C          2.50302700  *  -0.49262800  *  -1.70475800  *
    19       C          3.81126500  *  -0.58118700  *  -1.22237300  *
    20       C          4.17295300  *   0.07496400  *  -0.03549700  *
    21       C          5.58665400  *   0.00252000  *   0.47100300  *
    22       C          6.39109200  *   1.12704300  *  -0.09666900  *
    23       O          6.47735600  *   2.21628600  *   0.53321500  *
    24       O          7.00811200  *   0.97129800  *  -1.34142500  *
    25       C          7.75315800  *   2.01159300  *  -1.96168700  *
    26       C          3.21531300  *   0.84193800  *   0.64772100  *
    27       C         -0.94978500  *   0.11246400  *   1.60263400  *
    28       N         -1.69513300  *   0.09219200  *   0.47142700  *
    29       H         -6.69235900  *   0.53793800  *  -0.52922600  *
    30       H         -7.35307100  *   1.48288500  *  -1.90710700  *
    31       H         -7.83583300  *  -0.24213700  *  -1.70132100  *
    32       H         -4.96871900  *   0.76193400  *  -2.31194800  *
    33       H         -6.12710000  *   0.15369100  *  -3.53597600  *
    34       H         -4.63844300  *  -1.67243100  *  -3.00919000  *
    35       H         -6.24442700  *  -2.07055000  *  -2.32192600  *
    36       H         -5.44354600  *  -1.37635700  *  -0.04162000  *
    37       H         -4.41255400  *  -2.66257700  *  -0.76395800  *
    38       H         -2.12781600  *  -2.33988900  *   4.63876000  *
    39       H         -3.53287100  *  -2.95465300  *   3.70529300  *
    40       H         -0.25809500  *  -0.89397800  *   4.58964200  *
    41       H          0.14755600  *   2.19482200  *   0.21641400  *
    42       H          1.34546900  *   2.55029400  *   1.49044300  *
    43       H          0.53814000  *   0.31423000  *  -1.39800400  *
    44       H          2.22702200  *  -1.00948400  *  -2.61462500  *
    45       H          4.54130100  *  -1.16269500  *  -1.77156700  *
    46       H          5.60105100  *   0.05114800  *   1.58184000  *
    47       H          6.05121300  *  -0.96498300  *   0.18158800  *
    48       H          8.60545000  *   2.30779800  *  -1.31411800  *
    49       H          7.09826500  *   2.88915700  *  -2.14686900  *
    50       H          8.15046000  *   1.64677300  *  -2.93137000  *
    51       H          3.49199400  *   1.35883800  *   1.55875000  *



          CARTESIAN COORDINATES 

    NO.       ATOM           X           Y           Z

     1         C         -6.9972      0.4787     -1.5944
     2         C         -5.8176      0.0625     -2.4725
     3         C         -5.3719     -1.3882     -2.2234
     4         C         -4.7187     -1.5973     -0.8542
     5         O         -3.5692     -0.7655     -0.7251
     6         C         -2.7845     -0.7329      0.4299
     7         N         -3.0990     -1.5178      1.5146
     8         C         -2.3460     -1.5027      2.6550
     9         N         -2.6955     -2.3334      3.7626
    10         C         -1.2421     -0.6561      2.6833
    11         N         -0.3244     -0.4512      3.6465
    12         C          0.5164      0.4596      3.0942
    13         O          1.5366      0.9009      3.6873
    14         N          0.1552      0.8386      1.8405
    15         C          0.8677      1.7236      0.9207
    16         C          1.9031      0.9440      0.1581
    17         C          1.5500      0.2610     -1.0157
    18         C          2.5030     -0.4926     -1.7048
    19         C          3.8113     -0.5812     -1.2224
    20         C          4.1730      0.0750     -0.0355
    21         C          5.5867      0.0025      0.4710
    22         C          6.3911      1.1270     -0.0967
    23         O          6.4774      2.2163      0.5332
    24         O          7.0081      0.9713     -1.3414
    25         C          7.7532      2.0116     -1.9617
    26         C          3.2153      0.8419      0.6477
    27         C         -0.9498      0.1125      1.6026
    28         N         -1.6951      0.0922      0.4714
    29         H         -6.6924      0.5379     -0.5292
    30         H         -7.3531      1.4829     -1.9071
    31         H         -7.8358     -0.2421     -1.7013
    32         H         -4.9687      0.7619     -2.3119
    33         H         -6.1271      0.1537     -3.5360
    34         H         -4.6384     -1.6724     -3.0092
    35         H         -6.2444     -2.0705     -2.3219
    36         H         -5.4435     -1.3764     -0.0416
    37         H         -4.4126     -2.6626     -0.7640
    38         H         -2.1278     -2.3399      4.6388
    39         H         -3.5329     -2.9547      3.7053
    40         H         -0.2581     -0.8940      4.5896
    41         H          0.1476      2.1948      0.2164
    42         H          1.3455      2.5503      1.4904
    43         H          0.5381      0.3142     -1.3980
    44         H          2.2270     -1.0095     -2.6146
    45         H          4.5413     -1.1627     -1.7716
    46         H          5.6011      0.0511      1.5818
    47         H          6.0512     -0.9650      0.1816
    48         H          8.6054      2.3078     -1.3141
    49         H          7.0983      2.8892     -2.1469
    50         H          8.1505      1.6468     -2.9314
    51         H          3.4920      1.3588      1.5588

 General Reference for PM7:
 "Optimization of Parameters for Semiempirical Methods VI: More Modifications to the 
 NDDO Approximations and Re-optimization of Parameters", J. J. P. Stewart, J. Mol. Mod., 1:32, 19 (2013)
 https://link.springer.com/article/10.1007/s00894-012-1667-x

           Empirical Formula: C19 H23 N5 O4  =    51 atoms



      MOLECULAR POINT GROUP   :   C1  


      RHF CALCULATION, NO. OF DOUBLY OCCUPIED LEVELS = 74


          Geometry optimization using L-BFGS
 CYCLE:     1 TIME:   0.066 TIME LEFT:  2.00D  GRAD.:   389.770 HEAT: -65.10556
 CYCLE:     2 TIME:   0.035 TIME LEFT:  2.00D  GRAD.:   378.617 HEAT: -66.60322
 CYCLE:     3 TIME:   0.047 TIME LEFT:  2.00D  GRAD.:   123.226 HEAT: -96.45016
 CYCLE:     4 TIME:   0.047 TIME LEFT:  2.00D  GRAD.:   378.723 HEAT: -66.60375
 CYCLE:     5 TIME:   0.047 TIME LEFT:  2.00D  GRAD.:   123.188 HEAT: -96.45300
 CYCLE:     6 TIME:   0.039 TIME LEFT:  2.00D  GRAD.:    76.884 HEAT: -100.3821
 CYCLE:     7 TIME:   0.039 TIME LEFT:  2.00D  GRAD.:    51.865 HEAT: -104.1815
 CYCLE:     8 TIME:   0.039 TIME LEFT:  2.00D  GRAD.:    60.062 HEAT: -106.2117
 CYCLE:     9 TIME:   0.039 TIME LEFT:  2.00D  GRAD.:    43.973 HEAT: -107.8137
 CYCLE:    10 TIME:   0.039 TIME LEFT:  2.00D  GRAD.:    34.773 HEAT: -108.6734
 CYCLE:    11 TIME:   0.035 TIME LEFT:  2.00D  GRAD.:    26.226 HEAT: -109.2871
 CYCLE:    12 TIME:   0.039 TIME LEFT:  2.00D  GRAD.:    24.802 HEAT: -109.9880
 CYCLE:    13 TIME:   0.039 TIME LEFT:  2.00D  GRAD.:    37.453 HEAT: -110.6108
 CYCLE:    14 TIME:   0.035 TIME LEFT:  2.00D  GRAD.:    20.255 HEAT: -111.1234
 CYCLE:    15 TIME:   0.035 TIME LEFT:  2.00D  GRAD.:    16.537 HEAT: -111.4391
 CYCLE:    16 TIME:   0.035 TIME LEFT:  2.00D  GRAD.:    18.047 HEAT: -111.7157
 CYCLE:    17 TIME:   0.039 TIME LEFT:  2.00D  GRAD.:    26.564 HEAT: -111.9735
 CYCLE:    18 TIME:   0.035 TIME LEFT:  2.00D  GRAD.:    14.581 HEAT: -112.2132
 CYCLE:    19 TIME:   0.039 TIME LEFT:  2.00D  GRAD.:    13.189 HEAT: -112.3881
 CYCLE:    20 TIME:   0.035 TIME LEFT:  2.00D  GRAD.:    15.289 HEAT: -112.5688
 CYCLE:    21 TIME:   0.039 TIME LEFT:  2.00D  GRAD.:    45.704 HEAT: -112.6024
 CYCLE:    22 TIME:   0.035 TIME LEFT:  2.00D  GRAD.:    13.250 HEAT: -112.9016
 CYCLE:    23 TIME:   0.035 TIME LEFT:  2.00D  GRAD.:    10.039 HEAT: -112.9842
 CYCLE:    24 TIME:   0.039 TIME LEFT:  2.00D  GRAD.:    12.141 HEAT: -113.1004
 CYCLE:    25 TIME:   0.035 TIME LEFT:  2.00D  GRAD.:    15.757 HEAT: -113.2512
 CYCLE:    26 TIME:   0.039 TIME LEFT:  2.00D  GRAD.:    18.479 HEAT: -113.3468
 CYCLE:    27 TIME:   0.035 TIME LEFT:  2.00D  GRAD.:     9.086 HEAT: -113.4332
 CYCLE:    28 TIME:   0.035 TIME LEFT:  2.00D  GRAD.:     8.248 HEAT: -113.4767
 CYCLE:    29 TIME:   0.039 TIME LEFT:  2.00D  GRAD.:     7.923 HEAT: -113.5346
 CYCLE:    30 TIME:   0.035 TIME LEFT:  2.00D  GRAD.:    18.895 HEAT: -113.5497
 CYCLE:    31 TIME:   0.035 TIME LEFT:  2.00D  GRAD.:     4.436 HEAT: -113.6080
 CYCLE:    32 TIME:   0.039 TIME LEFT:  2.00D  GRAD.:     3.040 HEAT: -113.6159
 CYCLE:    33 TIME:   0.039 TIME LEFT:  2.00D  GRAD.:     3.707 HEAT: -113.6287
 CYCLE:    34 TIME:   0.039 TIME LEFT:  2.00D  GRAD.:     5.108 HEAT: -113.6471
 CYCLE:    35 TIME:   0.035 TIME LEFT:  2.00D  GRAD.:     9.288 HEAT: -113.6607
 CYCLE:    36 TIME:   0.035 TIME LEFT:  2.00D  GRAD.:     3.864 HEAT: -113.6826
 CYCLE:    37 TIME:   0.035 TIME LEFT:  2.00D  GRAD.:     3.543 HEAT: -113.6944
 CYCLE:    38 TIME:   0.035 TIME LEFT:  2.00D  GRAD.:     5.296 HEAT: -113.7100
 CYCLE:    39 TIME:   0.039 TIME LEFT:  2.00D  GRAD.:     6.082 HEAT: -113.7212
 CYCLE:    40 TIME:   0.035 TIME LEFT:  2.00D  GRAD.:     3.160 HEAT: -113.7337
 CYCLE:    41 TIME:   0.035 TIME LEFT:  2.00D  GRAD.:     2.613 HEAT: -113.7418
 CYCLE:    42 TIME:   0.035 TIME LEFT:  2.00D  GRAD.:     2.881 HEAT: -113.7500
 CYCLE:    43 TIME:   0.039 TIME LEFT:  2.00D  GRAD.:     4.812 HEAT: -113.7561
 CYCLE:    44 TIME:   0.035 TIME LEFT:  2.00D  GRAD.:     2.341 HEAT: -113.7631
 CYCLE:    45 TIME:   0.035 TIME LEFT:  2.00D  GRAD.:     2.112 HEAT: -113.7670
 CYCLE:    46 TIME:   0.035 TIME LEFT:  2.00D  GRAD.:     3.098 HEAT: -113.7722
 CYCLE:    47 TIME:   0.039 TIME LEFT:  2.00D  GRAD.:     3.847 HEAT: -113.7780
 CYCLE:    48 TIME:   0.035 TIME LEFT:  2.00D  GRAD.:     2.558 HEAT: -113.7836
 CYCLE:    49 TIME:   0.035 TIME LEFT:  2.00D  GRAD.:     2.595 HEAT: -113.7911
 CYCLE:    50 TIME:   0.035 TIME LEFT:  2.00D  GRAD.:     3.106 HEAT: -113.7969
 CYCLE:    51 TIME:   0.039 TIME LEFT:  2.00D  GRAD.:     3.309 HEAT: -113.8066
 CYCLE:    52 TIME:   0.035 TIME LEFT:  2.00D  GRAD.:     4.644 HEAT: -113.8155
 CYCLE:    53 TIME:   0.039 TIME LEFT:  2.00D  GRAD.:     3.029 HEAT: -113.8245
 CYCLE:    54 TIME:   0.031 TIME LEFT:  2.00D  GRAD.:     3.203 HEAT: -113.8334
 CYCLE:    55 TIME:   0.039 TIME LEFT:  2.00D  GRAD.:     4.694 HEAT: -113.8416
 CYCLE:    56 TIME:   0.035 TIME LEFT:  2.00D  GRAD.:     3.342 HEAT: -113.8522
 CYCLE:    57 TIME:   0.039 TIME LEFT:  2.00D  GRAD.:     3.526 HEAT: -113.8655
 CYCLE:    58 TIME:   0.039 TIME LEFT:  2.00D  GRAD.:     5.930 HEAT: -113.8780
 CYCLE:    59 TIME:   0.035 TIME LEFT:  2.00D  GRAD.:     3.983 HEAT: -113.8931
 CYCLE:    60 TIME:   0.035 TIME LEFT:  2.00D  GRAD.:     3.556 HEAT: -113.9101
 CYCLE:    61 TIME:   0.035 TIME LEFT:  2.00D  GRAD.:     6.439 HEAT: -113.9198
 CYCLE:    62 TIME:   0.035 TIME LEFT:  2.00D  GRAD.:     3.841 HEAT: -113.9313
 CYCLE:    63 TIME:   0.039 TIME LEFT:  2.00D  GRAD.:     2.940 HEAT: -113.9410
 CYCLE:    64 TIME:   0.039 TIME LEFT:  2.00D  GRAD.:     3.244 HEAT: -113.9481
 CYCLE:    65 TIME:   0.035 TIME LEFT:  2.00D  GRAD.:     4.955 HEAT: -113.9528
 CYCLE:    66 TIME:   0.039 TIME LEFT:  2.00D  GRAD.:     1.851 HEAT: -113.9578
 CYCLE:    67 TIME:   0.035 TIME LEFT:  2.00D  GRAD.:     1.380 HEAT: -113.9599
 CYCLE:    68 TIME:   0.039 TIME LEFT:  2.00D  GRAD.:     1.912 HEAT: -113.9619
 CYCLE:    69 TIME:   0.039 TIME LEFT:  2.00D  GRAD.:     2.706 HEAT: -113.9648
 CYCLE:    70 TIME:   0.035 TIME LEFT:  2.00D  GRAD.:     2.207 HEAT: -113.9674
 CYCLE:    71 TIME:   0.035 TIME LEFT:  2.00D  GRAD.:     1.752 HEAT: -113.9696
 CYCLE:    72 TIME:   0.035 TIME LEFT:  2.00D  GRAD.:     1.849 HEAT: -113.9731
 CYCLE:    73 TIME:   0.039 TIME LEFT:  2.00D  GRAD.:     3.300 HEAT: -113.9759
 CYCLE:    74 TIME:   0.035 TIME LEFT:  2.00D  GRAD.:     1.691 HEAT: -113.9786
 CYCLE:    75 TIME:   0.039 TIME LEFT:  2.00D  GRAD.:     1.456 HEAT: -113.9808
 CYCLE:    76 TIME:   0.035 TIME LEFT:  2.00D  GRAD.:     1.678 HEAT: -113.9827
 CYCLE:    77 TIME:   0.039 TIME LEFT:  2.00D  GRAD.:     3.005 HEAT: -113.9854
 CYCLE:    78 TIME:   0.035 TIME LEFT:  2.00D  GRAD.:     2.110 HEAT: -113.9884
 CYCLE:    79 TIME:   0.035 TIME LEFT:  2.00D  GRAD.:     1.403 HEAT: -113.9902
 CYCLE:    80 TIME:   0.035 TIME LEFT:  2.00D  GRAD.:     1.567 HEAT: -113.9923
 CYCLE:    81 TIME:   0.039 TIME LEFT:  2.00D  GRAD.:     1.689 HEAT: -113.9944
 CYCLE:    82 TIME:   0.039 TIME LEFT:  2.00D  GRAD.:     2.496 HEAT: -113.9974
 CYCLE:    83 TIME:   0.039 TIME LEFT:  2.00D  GRAD.:     2.565 HEAT: -113.9999
 CYCLE:    84 TIME:   0.035 TIME LEFT:  2.00D  GRAD.:     1.889 HEAT: -114.0024
 CYCLE:    85 TIME:   0.035 TIME LEFT:  2.00D  GRAD.:     1.789 HEAT: -114.0055
 CYCLE:    86 TIME:   0.039 TIME LEFT:  2.00D  GRAD.:     2.302 HEAT: -114.0101
 CYCLE:    87 TIME:   0.039 TIME LEFT:  2.00D  GRAD.:     2.276 HEAT: -114.0147
 CYCLE:    88 TIME:   0.039 TIME LEFT:  2.00D  GRAD.:     2.128 HEAT: -114.0193
 CYCLE:    89 TIME:   0.039 TIME LEFT:  2.00D  GRAD.:     3.535 HEAT: -114.0222
 CYCLE:    90 TIME:   0.039 TIME LEFT:  2.00D  GRAD.:     5.251 HEAT: -114.0254
 CYCLE:    91 TIME:   0.035 TIME LEFT:  2.00D  GRAD.:     2.492 HEAT: -114.0332
 CYCLE:    92 TIME:   0.035 TIME LEFT:  2.00D  GRAD.:     1.672 HEAT: -114.0353
 CYCLE:    93 TIME:   0.039 TIME LEFT:  2.00D  GRAD.:     2.404 HEAT: -114.0370
 CYCLE:    94 TIME:   0.035 TIME LEFT:  2.00D  GRAD.:     2.052 HEAT: -114.0405
 CYCLE:    95 TIME:   0.039 TIME LEFT:  2.00D  GRAD.:     1.945 HEAT: -114.0432
 CYCLE:    96 TIME:   0.039 TIME LEFT:  2.00D  GRAD.:     2.625 HEAT: -114.0459
 CYCLE:    97 TIME:   0.039 TIME LEFT:  2.00D  GRAD.:     1.781 HEAT: -114.0486
 CYCLE:    98 TIME:   0.035 TIME LEFT:  2.00D  GRAD.:     1.591 HEAT: -114.0522
 CYCLE:    99 TIME:   0.043 TIME LEFT:  2.00D  GRAD.:     2.805 HEAT: -114.0563
 CYCLE:   100 TIME:   0.043 TIME LEFT:  2.00D  GRAD.:     3.791 HEAT: -114.0593
 CYCLE:   101 TIME:   0.035 TIME LEFT:  2.00D  GRAD.:     2.555 HEAT: -114.0628
 CYCLE:   102 TIME:   0.039 TIME LEFT:  2.00D  GRAD.:     2.184 HEAT: -114.0680
 CYCLE:   103 TIME:   0.035 TIME LEFT:  2.00D  GRAD.:     2.433 HEAT: -114.0719
 CYCLE:   104 TIME:   0.039 TIME LEFT:  2.00D  GRAD.:     3.567 HEAT: -114.0766
 CYCLE:   105 TIME:   0.035 TIME LEFT:  2.00D  GRAD.:     2.739 HEAT: -114.0795
 CYCLE:   106 TIME:   0.035 TIME LEFT:  2.00D  GRAD.:     1.511 HEAT: -114.0820
 CYCLE:   107 TIME:   0.043 TIME LEFT:  2.00D  GRAD.:     1.703 HEAT: -114.0825
 CYCLE:   108 TIME:   0.039 TIME LEFT:  2.00D  GRAD.:     1.480 HEAT: -114.0856
 CYCLE:   109 TIME:   0.039 TIME LEFT:  2.00D  GRAD.:     2.107 HEAT: -114.0876
 CYCLE:   110 TIME:   0.039 TIME LEFT:  2.00D  GRAD.:     1.681 HEAT: -114.0901
 CYCLE:   111 TIME:   0.039 TIME LEFT:  2.00D  GRAD.:     1.494 HEAT: -114.0923
 CYCLE:   112 TIME:   0.039 TIME LEFT:  2.00D  GRAD.:     3.048 HEAT: -114.0944
 CYCLE:   113 TIME:   0.035 TIME LEFT:  2.00D  GRAD.:     1.800 HEAT: -114.0969
 CYCLE:   114 TIME:   0.039 TIME LEFT:  2.00D  GRAD.:     1.945 HEAT: -114.0980
 CYCLE:   115 TIME:   0.035 TIME LEFT:  2.00D  GRAD.:     1.754 HEAT: -114.1002
 CYCLE:   116 TIME:   0.035 TIME LEFT:  2.00D  GRAD.:     1.762 HEAT: -114.1029
 CYCLE:   117 TIME:   0.039 TIME LEFT:  2.00D  GRAD.:     2.311 HEAT: -114.1052
 CYCLE:   118 TIME:   0.039 TIME LEFT:  2.00D  GRAD.:     1.699 HEAT: -114.1076
 CYCLE:   119 TIME:   0.039 TIME LEFT:  2.00D  GRAD.:     1.752 HEAT: -114.1102
 CYCLE:   120 TIME:   0.039 TIME LEFT:  2.00D  GRAD.:     2.853 HEAT: -114.1124
 CYCLE:   121 TIME:   0.035 TIME LEFT:  2.00D  GRAD.:     1.565 HEAT: -114.1156
 CYCLE:   122 TIME:   0.039 TIME LEFT:  2.00D  GRAD.:     1.365 HEAT: -114.1177
 CYCLE:   123 TIME:   0.035 TIME LEFT:  2.00D  GRAD.:     1.860 HEAT: -114.1197
 CYCLE:   124 TIME:   0.039 TIME LEFT:  2.00D  GRAD.:     1.593 HEAT: -114.1225
 CYCLE:   125 TIME:   0.039 TIME LEFT:  2.00D  GRAD.:     1.320 HEAT: -114.1243
 CYCLE:   126 TIME:   0.039 TIME LEFT:  2.00D  GRAD.:     2.250 HEAT: -114.1254
 CYCLE:   127 TIME:   0.035 TIME LEFT:  2.00D  GRAD.:     2.093 HEAT: -114.1277
 CYCLE:   128 TIME:   0.039 TIME LEFT:  2.00D  GRAD.:     1.566 HEAT: -114.1298
 CYCLE:   129 TIME:   0.039 TIME LEFT:  2.00D  GRAD.:     1.680 HEAT: -114.1334
 CYCLE:   130 TIME:   0.039 TIME LEFT:  2.00D  GRAD.:     2.391 HEAT: -114.1352
 CYCLE:   131 TIME:   0.039 TIME LEFT:  2.00D  GRAD.:     1.597 HEAT: -114.1370
 CYCLE:   132 TIME:   0.039 TIME LEFT:  2.00D  GRAD.:     2.023 HEAT: -114.1382
 CYCLE:   133 TIME:   0.035 TIME LEFT:  2.00D  GRAD.:     2.098 HEAT: -114.1421
 CYCLE:   134 TIME:   0.039 TIME LEFT:  2.00D  GRAD.:     4.664 HEAT: -114.1433
 CYCLE:   135 TIME:   0.035 TIME LEFT:  2.00D  GRAD.:     1.469 HEAT: -114.1480
 CYCLE:   136 TIME:   0.039 TIME LEFT:  2.00D  GRAD.:     1.436 HEAT: -114.1489
 CYCLE:   137 TIME:   0.035 TIME LEFT:  2.00D  GRAD.:     1.806 HEAT: -114.1514
 CYCLE:   138 TIME:   0.043 TIME LEFT:  2.00D  GRAD.:     1.780 HEAT: -114.1530
 CYCLE:   139 TIME:   0.035 TIME LEFT:  2.00D  GRAD.:     1.605 HEAT: -114.1553
 CYCLE:   140 TIME:   0.039 TIME LEFT:  2.00D  GRAD.:     1.261 HEAT: -114.1566
 CYCLE:   141 TIME:   0.039 TIME LEFT:  2.00D  GRAD.:     1.580 HEAT: -114.1586
 CYCLE:   142 TIME:   0.035 TIME LEFT:  2.00D  GRAD.:     1.732 HEAT: -114.1608
 CYCLE:   143 TIME:   0.043 TIME LEFT:  2.00D  GRAD.:     1.771 HEAT: -114.1618
 CYCLE:   144 TIME:   0.035 TIME LEFT:  2.00D  GRAD.:     2.429 HEAT: -114.1642
 CYCLE:   145 TIME:   0.039 TIME LEFT:  2.00D  GRAD.:     1.157 HEAT: -114.1662
 CYCLE:   146 TIME:   0.039 TIME LEFT:  2.00D  GRAD.:     1.013 HEAT: -114.1672
 CYCLE:   147 TIME:   0.043 TIME LEFT:  2.00D  GRAD.:     1.588 HEAT: -114.1680
 CYCLE:   148 TIME:   0.031 TIME LEFT:  2.00D  GRAD.:     3.380 HEAT: -114.1681
 CYCLE:   149 TIME:   0.039 TIME LEFT:  2.00D  GRAD.:     1.111 HEAT: -114.1700
 CYCLE:   150 TIME:   0.039 TIME LEFT:  2.00D  GRAD.:     0.783 HEAT: -114.1707

 -------------------------------------------------------------------------------
 PM7 XYZ

 Lipophilicity_1049 - geometry optimisation


     HERBERTS TEST WAS SATISFIED IN BFGS                      
     SCF FIELD WAS ACHIEVED                                   


                              PM7 CALCULATION
                                                       MOPAC v23.0.3 Linux
                                                       Fri Jul 25 16:02:38 2025




          FINAL HEAT OF FORMATION =       -114.17067 KCAL/MOL =    -477.69008 KJ/MOL


          COSMO AREA              =        408.06 SQUARE ANGSTROMS
          COSMO VOLUME            =        455.33 CUBIC ANGSTROMS

          GRADIENT NORM           =          0.78317          =       0.10967 PER ATOM
          IONIZATION POTENTIAL    =          8.669840 EV
          HOMO LUMO ENERGIES (EV) =         -8.670 -0.294
          NO. OF FILLED LEVELS    =         74
          MOLECULAR WEIGHT        =        385.4218         POINT GROUP:  C1  

          MOLECULAR DIMENSIONS (Angstroms)

            Atom       Atom       Distance
            H    48    H    31    16.38850
            H    38    H    33     8.32235
            H    42    H    45     5.26378


          SCF CALCULATIONS        =        151

          WALL-CLOCK TIME         =      5.715 SECONDS
          COMPUTATION TIME        =          1 MINUTE AND 54.044 SECONDS




   ATOM   CHEMICAL          X               Y               Z
  NUMBER   SYMBOL      (ANGSTROMS)     (ANGSTROMS)     (ANGSTROMS)

     1       C         -7.03323091  *   0.31356707  *  -1.57776186  *
     2       C         -5.68639849  *   0.14742943  *  -2.27949963  *
     3       C         -5.14718736  *  -1.28478006  *  -2.16782085  *
     4       C         -4.57833193  *  -1.57083059  *  -0.78103103  *
     5       O         -3.40822279  *  -0.71684575  *  -0.74836674  *
     6       C         -2.71091768  *  -0.71573581  *   0.39278161  *
     7       N         -3.05594017  *  -1.55970068  *   1.40066932  *
     8       C         -2.29468648  *  -1.55745379  *   2.53957123  *
     9       N         -2.63093713  *  -2.47958181  *   3.49932482  *
    10       C         -1.20664607  *  -0.67465680  *   2.63478872  *
    11       N         -0.24043525  *  -0.37252655  *   3.61911414  *
    12       C          0.62620607  *   0.61489800  *   3.11369644  *
    13       O          1.59598546  *   1.07398011  *   3.65864747  *
    14       N          0.09178568  *   1.03159344  *   1.84676739  *
    15       C          0.84627766  *   1.83329079  *   0.88552960  *
    16       C          1.85649536  *   0.98242722  *   0.16166000  *
    17       C          1.47543889  *   0.26468303  *  -0.97206324  *
    18       C          2.40754515  *  -0.53541333  *  -1.62822139  *
    19       C          3.71612024  *  -0.61619530  *  -1.15660635  *
    20       C          4.09285415  *   0.09989411  *  -0.01888637  *
    21       C          5.50039432  *   0.02307674  *   0.48836980  *
    22       C          6.27264707  *   1.18153008  *  -0.08107288  *
    23       O          6.38185880  *   2.28855804  *   0.37354612  *
    24       O          6.86780651  *   0.80156815  *  -1.24172298  *
    25       C          7.57996607  *   1.81862828  *  -1.93896206  *
    26       C          3.16071378  *   0.89827746  *   0.64478841  *
    27       C         -0.96786085  *   0.19663772  *   1.51545280  *
    28       N         -1.68771701  *   0.19353577  *   0.37786951  *
    29       H         -6.97124849  *   0.04910054  *  -0.51610429  *
    30       H         -7.38038532  *   1.35193317  *  -1.63209625  *
    31       H         -7.80518871  *  -0.31581522  *  -2.03239712  *
    32       H         -4.94592562  *   0.85708708  *  -1.85509871  *
    33       H         -5.78313779  *   0.42484988  *  -3.34647581  *
    34       H         -4.35504411  *  -1.44154018  *  -2.92962670  *
    35       H         -5.94228020  *  -2.01864647  *  -2.39776060  *
    36       H         -5.25739902  *  -1.28448373  *   0.03969029  *
    37       H         -4.25917447  *  -2.61867455  *  -0.64860506  *
    38       H         -2.30943607  *  -2.36411241  *   4.43602930  *
    39       H         -3.46201018  *  -3.02817460  *   3.36701784  *
    40       H         -0.03042970  *  -0.95568567  *   4.39851992  *
    41       H          0.12105387  *   2.29769212  *   0.16847233  *
    42       H          1.33876150  *   2.66955308  *   1.44341726  *
    43       H          0.44612416  *   0.32205295  *  -1.33471451  *
    44       H          2.11238319  *  -1.09982119  *  -2.51031873  *
    45       H          4.44494276  *  -1.23356258  *  -1.67850868  *
    46       H          5.53061729  *   0.07417940  *   1.60161373  *
    47       H          5.97765680  *  -0.94468564  *   0.21942273  *
    48       H          8.36653804  *   2.23886845  *  -1.30318182  *
    49       H          6.88782510  *   2.60477562  *  -2.25910725  *
    50       H          8.00146442  *   1.28391654  *  -2.79724143  *
    51       H          3.45076914  *   1.45135776  *   1.54149942  *

                             CARTESIAN COORDINATES

   1    C       -7.033230906     0.313567067    -1.577761857
   2    C       -5.686398489     0.147429430    -2.279499632
   3    C       -5.147187356    -1.284780063    -2.167820847
   4    C       -4.578331935    -1.570830587    -0.781031032
   5    O       -3.408222787    -0.716845745    -0.748366745
   6    C       -2.710917676    -0.715735808     0.392781606
   7    N       -3.055940172    -1.559700675     1.400669321
   8    C       -2.294686483    -1.557453787     2.539571227
   9    N       -2.630937126    -2.479581814     3.499324818
  10    C       -1.206646070    -0.674656798     2.634788724
  11    N       -0.240435250    -0.372526547     3.619114137
  12    C        0.626206066     0.614897999     3.113696440
  13    O        1.595985464     1.073980110     3.658647468
  14    N        0.091785684     1.031593437     1.846767387
  15    C        0.846277663     1.833290786     0.885529602
  16    C        1.856495355     0.982427221     0.161660003
  17    C        1.475438891     0.264683031    -0.972063241
  18    C        2.407545152    -0.535413335    -1.628221386
  19    C        3.716120241    -0.616195301    -1.156606351
  20    C        4.092854154     0.099894113    -0.018886368
  21    C        5.500394317     0.023076742     0.488369803
  22    C        6.272647073     1.181530083    -0.081072877
  23    O        6.381858804     2.288558045     0.373546118
  24    O        6.867806513     0.801568150    -1.241722977
  25    C        7.579966070     1.818628281    -1.938962061
  26    C        3.160713784     0.898277456     0.644788405
  27    C       -0.967860847     0.196637718     1.515452795
  28    N       -1.687717006     0.193535769     0.377869509
  29    H       -6.971248489     0.049100538    -0.516104290
  30    H       -7.380385320     1.351933174    -1.632096250
  31    H       -7.805188707    -0.315815224    -2.032397115
  32    H       -4.945925624     0.857087077    -1.855098709
  33    H       -5.783137794     0.424849883    -3.346475811
  34    H       -4.355044112    -1.441540185    -2.929626704
  35    H       -5.942280195    -2.018646467    -2.397760604
  36    H       -5.257399021    -1.284483730     0.039690289
  37    H       -4.259174471    -2.618674552    -0.648605061
  38    H       -2.309436071    -2.364112412     4.436029304
  39    H       -3.462010178    -3.028174597     3.367017843
  40    H       -0.030429696    -0.955685665     4.398519920
  41    H        0.121053874     2.297692120     0.168472335
  42    H        1.338761498     2.669553078     1.443417260
  43    H        0.446124158     0.322052951    -1.334714510
  44    H        2.112383193    -1.099821187    -2.510318727
  45    H        4.444942763    -1.233562580    -1.678508684
  46    H        5.530617292     0.074179403     1.601613733
  47    H        5.977656802    -0.944685636     0.219422727
  48    H        8.366538041     2.238868448    -1.303181822
  49    H        6.887825098     2.604775620    -2.259107252
  50    H        8.001464419     1.283916544    -2.797241431
  51    H        3.450769141     1.451357756     1.541499417


           Empirical Formula: C19 H23 N5 O4  =    51 atoms



      MOLECULAR POINT GROUP   :   C1  


                  EIGENVALUES  
 -39.07232 -38.08085 -37.08100 -35.50134 -33.94088 -31.39223 -31.07253 -30.83084
 -30.67044 -29.91085 -28.82386 -28.12602 -27.07443 -26.12176 -25.48130 -25.31254
 -24.47426 -23.82458 -23.16510 -22.73476 -22.17113 -21.74482 -21.01271 -20.45151
 -19.94714 -19.40926 -19.19311 -19.03662 -18.09090 -17.51356 -17.36452 -17.12258
 -16.92784 -16.67698 -16.52902 -16.38037 -16.21377 -16.03872 -15.81343 -15.47990
 -15.35427 -15.24408 -15.08077 -14.88502 -14.41942 -14.39676 -14.27066 -14.10487
 -13.95977 -13.59434 -13.48548 -13.31992 -13.23930 -13.15276 -13.08269 -12.91615
 -12.73080 -12.65957 -12.56451 -12.11362 -11.94979 -11.90233 -11.84323 -11.55870
 -11.43573 -11.19333 -11.12019 -10.87624 -10.61493 -10.47986  -9.87697  -9.69231
  -9.54965  -8.66984  -0.29397  -0.18542   0.02503   0.20033   0.76756   1.03924
   1.18550   1.35980   1.73457   1.79704   1.96143   2.08582   2.52853   2.59411
   2.99778   3.04471   3.37135   3.44975   3.54140   3.68537   3.78350   3.84830
   4.05551   4.15326   4.21085   4.40354   4.45988   4.54938   4.61222   4.75978
   4.84085   4.99974   5.03179   5.09631   5.17911   5.22970   5.34433   5.36799
   5.42446   5.47131   5.50543   5.52452   5.58893   5.63177   5.69540   5.71705
   5.75964   5.80175   5.83667   5.94185   6.05763   6.09168   6.16354   6.23652
   6.24287   6.28414   6.32769   6.35122   6.40066   6.62877   6.96783


              NET ATOMIC CHARGES AND DIPOLE CONTRIBUTIONS

  ATOM NO.   TYPE          CHARGE      No. of ELECS.   s-Pop       p-Pop       
    1          C          -0.439909        4.4399     1.05198     3.38793
    2          C          -0.245081        4.2451     1.05470     3.19039
    3          C          -0.294900        4.2949     1.06228     3.23262
    4          C          -0.032433        4.0324     1.10132     2.93112
    5          O          -0.259228        6.2592     1.87151     4.38771
    6          C           0.558379        3.4416     1.07119     2.37043
    7          N          -0.632676        5.6327     1.76341     3.86926
    8          C           0.463773        3.5362     1.03611     2.50012
    9          N          -0.577288        5.5773     1.52623     4.05106
   10          C          -0.249252        4.2493     1.02602     3.22323
   11          N          -0.492882        5.4929     1.54067     3.95221
   12          C           0.676862        3.3231     1.04462     2.27852
   13          O          -0.482217        6.4822     1.87914     4.60308
   14          N          -0.420349        5.4203     1.57639     3.84396
   15          C          -0.049217        4.0492     1.06802     2.98120
   16          C          -0.055113        4.0551     1.07075     2.98436
   17          C          -0.132179        4.1322     1.09025     3.04193
   18          C          -0.149779        4.1498     1.08226     3.06752
   19          C          -0.148688        4.1487     1.08623     3.06246
   20          C          -0.005282        4.0053     1.06104     2.94424
   21          C          -0.358731        4.3587     1.06521     3.29352
   22          C           0.607725        3.3923     1.12066     2.27162
   23          O          -0.495790        6.4958     1.87599     4.61980
   24          O          -0.411633        6.4116     1.86721     4.54443
   25          C          -0.170674        4.1707     1.08553     3.08514
   26          C          -0.142402        4.1424     1.09051     3.05189
   27          C           0.391670        3.6083     1.04737     2.56096
   28          N          -0.525292        5.5253     1.76280     3.76249
   29          H           0.144105        0.8559     0.85590
   30          H           0.142276        0.8577     0.85772
   31          H           0.138425        0.8616     0.86157
   32          H           0.156191        0.8438     0.84381
   33          H           0.132910        0.8671     0.86709
   34          H           0.154276        0.8457     0.84572
   35          H           0.148751        0.8512     0.85125
   36          H           0.145668        0.8543     0.85433
   37          H           0.141975        0.8580     0.85803
   38          H           0.306030        0.6940     0.69397
   39          H           0.318084        0.6819     0.68192
   40          H           0.333745        0.6663     0.66626
   41          H           0.178532        0.8215     0.82147
   42          H           0.174646        0.8254     0.82535
   43          H           0.174640        0.8254     0.82536
   44          H           0.151503        0.8485     0.84850
   45          H           0.154538        0.8455     0.84546
   46          H           0.191196        0.8088     0.80880
   47          H           0.182884        0.8171     0.81712
   48          H           0.140997        0.8590     0.85900
   49          H           0.139877        0.8601     0.86012
   50          H           0.144556        0.8554     0.85544
   51          H           0.176783        0.8232     0.82322
 DIPOLE           X         Y         Z       TOTAL
 POINT-CHG.    -3.533    -4.197    -1.155     5.606
 HYBRID         0.422    -0.448     1.306     1.443
 SUM           -3.111    -4.645     0.150     5.592


          ATOMIC ORBITAL ELECTRON POPULATIONS

     Atom    s        px        py        pz   
    1  C   1.05198   1.07024   1.16983   1.14786
    2  C   1.05470   1.03758   1.02664   1.12616
    3  C   1.06228   1.12961   1.06211   1.04090
    4  C   1.10132   0.87117   1.01565   1.04430
    5  O   1.87151   1.42964   1.63131   1.32676
    6  C   1.07119   0.79650   0.77742   0.79650
    7  N   1.76341   1.38169   1.36913   1.11844
    8  C   1.03611   0.85385   0.81361   0.83266
    9  N   1.52623   1.44575   1.40888   1.19643
   10  C   1.02602   1.07020   1.16792   0.98511
   11  N   1.54067   1.29634   1.38257   1.27330
   12  C   1.04462   0.74930   0.76832   0.76090
   13  O   1.87914   1.33279   1.62285   1.64744
   14  N   1.57639   1.26382   1.38567   1.19447
   15  C   1.06802   1.01597   0.98331   0.98192
   16  C   1.07075   0.97874   1.01116   0.99446
   17  C   1.09025   1.07814   0.97493   0.98886
   18  C   1.08226   0.99060   1.02222   1.05470
   19  C   1.08623   1.03289   1.02392   1.00565
   20  C   1.06104   0.94397   1.00739   0.99288
   21  C   1.06521   1.03828   1.09925   1.15599
   22  C   1.12066   0.71178   0.82176   0.73807
   23  O   1.87599   1.61848   1.32503   1.67629
   24  O   1.86721   1.66186   1.44473   1.43784
   25  C   1.08553   1.05629   0.98815   1.04071
   26  C   1.09051   0.98696   1.00999   1.05495
   27  C   1.04737   0.85412   0.84650   0.86034
   28  N   1.76280   1.17851   1.31278   1.27120
   29  H   0.85590
   30  H   0.85772
   31  H   0.86157
   32  H   0.84381
   33  H   0.86709
   34  H   0.84572
   35  H   0.85125
   36  H   0.85433
   37  H   0.85803
   38  H   0.69397
   39  H   0.68192
   40  H   0.66626
   41  H   0.82147
   42  H   0.82535
   43  H   0.82536
   44  H   0.84850
   45  H   0.84546
   46  H   0.80880
   47  H   0.81712
   48  H   0.85900
   49  H   0.86012
   50  H   0.85544
   51  H   0.82322

 **********************
 *                    *
 * JOB ENDED NORMALLY *
 *                    *
 **********************



 TOTAL JOB TIME:             5.71 SECONDS

 == MOPAC DONE ==
