 *******************************************************************************
 **                                                                           **
 **                              MOPAC v23.0.3                                **
 **                                                                           **
 *******************************************************************************
 **          Digital Object Identifier (DOI): 10.5281/zenodo.6511958          **
 **    Visit the DOI location for information on how to cite this program.    **
 *******************************************************************************

                              PM7 CALCULATION RESULTS

 *******************************************************************************
 *  CALCULATION DONE:                                Fri Jul 25 19:53:47 2025  *
 *  PM7        - The PM7 Hamiltonian to be used
 *  XYZ        - CARTESIAN COORDINATE SYSTEM TO BE USED
 *  T=         - A TIME OF 172800.0 SECONDS REQUESTED
 *  DUMP=N     - RESTART FILE WRITTEN EVERY 7200.0 SECONDS REQUESTED
 *******************************************************************************
PM7 XYZ

 Lipophilicity_470 - geometry optimisation
   ATOM   CHEMICAL          X               Y               Z
  NUMBER   SYMBOL      (ANGSTROMS)     (ANGSTROMS)     (ANGSTROMS)

     1       F         -8.73795500  *   2.63816400  *   1.12955300  *
     2       C         -8.40255600  *   1.55774700  *   0.38208100  *
     3       C         -9.40211700  *   0.78734700  *  -0.21827000  *
     4       C         -9.05684200  *  -0.31316000  *  -1.00655900  *
     5       C         -7.71215500  *  -0.65012700  *  -1.18909600  *
     6       C         -6.70072700  *   0.10178300  *  -0.57082700  *
     7       N         -5.32529800  *  -0.25212800  *  -0.79149900  *
     8       C         -4.29002100  *  -0.10157400  *   0.18796400  *
     9       O         -3.01880800  *  -0.29129400  *  -0.06635100  *
    10       C         -2.41735800  *  -0.08350500  *   1.08076400  *
    11       N         -3.30149000  *   0.22898200  *   2.04892900  *
    12       N         -4.49719200  *   0.21438800  *   1.48068100  *
    13       C         -0.96695700  *  -0.17627300  *   1.28776900  *
    14       O         -0.49339400  *   0.03692600  *   2.43629800  *
    15       N         -0.10570400  *  -0.54658700  *   0.19924700  *
    16       C          1.32753100  *  -0.43348700  *   0.23154700  *
    17       C          1.97234700  *   0.60661000  *   0.91809100  *
    18       C          3.36505900  *   0.69875400  *   0.90449200  *
    19       C          4.11852200  *  -0.24606700  *   0.18517900  *
    20       N          3.46558400  *  -1.23621400  *  -0.48529800  *
    21       C          2.11095600  *  -1.34542000  *  -0.48569500  *
    22       N          5.56141900  *  -0.18808100  *   0.14282400  *
    23       C          6.27754500  *   1.06409100  *   0.42186000  *
    24       C          7.64214700  *   1.06356000  *  -0.27389300  *
    25       O          8.36030400  *  -0.11648800  *   0.02584300  *
    26       C          7.68922900  *  -1.23057500  *  -0.52806600  *
    27       C          6.33136800  *  -1.43882900  *   0.14840400  *
    28       C         -7.05617500  *   1.22270100  *   0.20280700  *
    29       H        -10.44373800  *   1.04758900  *  -0.08070300  *
    30       H         -9.83115900  *  -0.90404200  *  -1.47847700  *
    31       H         -7.45712300  *  -1.50409200  *  -1.80402800  *
    32       H         -5.07296300  *  -0.73644700  *  -1.68239600  *
    33       H         -0.54051000  *  -1.00076100  *  -0.63573900  *
    34       H          1.40410200  *   1.36037900  *   1.44615700  *
    35       H          3.84176300  *   1.49543400  *   1.45949000  *
    36       H          1.64384400  *  -2.14994100  *  -1.03855600  *
    37       H          6.41894800  *   1.16910500  *   1.51925800  *
    38       H          5.69870400  *   1.93545800  *   0.04584700  *
    39       H          7.51877100  *   1.19235300  *  -1.37376500  *
    40       H          8.22679200  *   1.93454500  *   0.08975000  *
    41       H          7.56299000  *  -1.12028500  *  -1.62974800  *
    42       H          8.31144400  *  -2.13515600  *  -0.36275000  *
    43       H          6.48712200  *  -1.76360000  *   1.19982500  *
    44       H          5.79092400  *  -2.24577300  *  -0.39116100  *
    45       H         -6.29717100  *   1.85399300  *   0.64459700  *



          CARTESIAN COORDINATES 

    NO.       ATOM           X           Y           Z

     1         F         -8.7380      2.6382      1.1296
     2         C         -8.4026      1.5577      0.3821
     3         C         -9.4021      0.7873     -0.2183
     4         C         -9.0568     -0.3132     -1.0066
     5         C         -7.7122     -0.6501     -1.1891
     6         C         -6.7007      0.1018     -0.5708
     7         N         -5.3253     -0.2521     -0.7915
     8         C         -4.2900     -0.1016      0.1880
     9         O         -3.0188     -0.2913     -0.0664
    10         C         -2.4174     -0.0835      1.0808
    11         N         -3.3015      0.2290      2.0489
    12         N         -4.4972      0.2144      1.4807
    13         C         -0.9670     -0.1763      1.2878
    14         O         -0.4934      0.0369      2.4363
    15         N         -0.1057     -0.5466      0.1992
    16         C          1.3275     -0.4335      0.2315
    17         C          1.9723      0.6066      0.9181
    18         C          3.3651      0.6988      0.9045
    19         C          4.1185     -0.2461      0.1852
    20         N          3.4656     -1.2362     -0.4853
    21         C          2.1110     -1.3454     -0.4857
    22         N          5.5614     -0.1881      0.1428
    23         C          6.2775      1.0641      0.4219
    24         C          7.6421      1.0636     -0.2739
    25         O          8.3603     -0.1165      0.0258
    26         C          7.6892     -1.2306     -0.5281
    27         C          6.3314     -1.4388      0.1484
    28         C         -7.0562      1.2227      0.2028
    29         H        -10.4437      1.0476     -0.0807
    30         H         -9.8312     -0.9040     -1.4785
    31         H         -7.4571     -1.5041     -1.8040
    32         H         -5.0730     -0.7364     -1.6824
    33         H         -0.5405     -1.0008     -0.6357
    34         H          1.4041      1.3604      1.4462
    35         H          3.8418      1.4954      1.4595
    36         H          1.6438     -2.1499     -1.0386
    37         H          6.4189      1.1691      1.5193
    38         H          5.6987      1.9355      0.0458
    39         H          7.5188      1.1924     -1.3738
    40         H          8.2268      1.9345      0.0897
    41         H          7.5630     -1.1203     -1.6297
    42         H          8.3114     -2.1352     -0.3628
    43         H          6.4871     -1.7636      1.1998
    44         H          5.7909     -2.2458     -0.3912
    45         H         -6.2972      1.8540      0.6446

 General Reference for PM7:
 "Optimization of Parameters for Semiempirical Methods VI: More Modifications to the 
 NDDO Approximations and Re-optimization of Parameters", J. J. P. Stewart, J. Mol. Mod., 1:32, 19 (2013)
 https://link.springer.com/article/10.1007/s00894-012-1667-x

           Empirical Formula: C18 H17 N6 O3 F  =    45 atoms



      MOLECULAR POINT GROUP   :   C1  


      RHF CALCULATION, NO. OF DOUBLY OCCUPIED LEVELS = 72


          Geometry optimization using L-BFGS
 CYCLE:     1 TIME:   0.062 TIME LEFT:  2.00D  GRAD.:   315.239 HEAT:  7.003161
 CYCLE:     2 TIME:   0.055 TIME LEFT:  2.00D  GRAD.:   307.339 HEAT:  6.021770
 CYCLE:     3 TIME:   0.062 TIME LEFT:  2.00D  GRAD.:    68.764 HEAT: -15.39571
 CYCLE:     4 TIME:   0.039 TIME LEFT:  2.00D  GRAD.:   307.337 HEAT:  6.021436
 CYCLE:     5 TIME:   0.039 TIME LEFT:  2.00D  GRAD.:    68.759 HEAT: -15.39575
 CYCLE:     6 TIME:   0.031 TIME LEFT:  2.00D  GRAD.:    44.920 HEAT: -16.99112
 CYCLE:     7 TIME:   0.031 TIME LEFT:  2.00D  GRAD.:    42.292 HEAT: -18.58200
 CYCLE:     8 TIME:   0.039 TIME LEFT:  2.00D  GRAD.:    63.239 HEAT: -19.74848
 CYCLE:     9 TIME:   0.031 TIME LEFT:  2.00D  GRAD.:    27.831 HEAT: -20.75297
 CYCLE:    10 TIME:   0.031 TIME LEFT:  2.00D  GRAD.:    21.649 HEAT: -21.13217
 CYCLE:    11 TIME:   0.031 TIME LEFT:  2.00D  GRAD.:    23.919 HEAT: -21.59887
 CYCLE:    12 TIME:   0.031 TIME LEFT:  2.00D  GRAD.:    31.120 HEAT: -22.21827
 CYCLE:    13 TIME:   0.039 TIME LEFT:  2.00D  GRAD.:    37.582 HEAT: -22.62342
 CYCLE:    14 TIME:   0.031 TIME LEFT:  2.00D  GRAD.:    16.988 HEAT: -23.04225
 CYCLE:    15 TIME:   0.031 TIME LEFT:  2.00D  GRAD.:    16.846 HEAT: -23.30017
 CYCLE:    16 TIME:   0.031 TIME LEFT:  2.00D  GRAD.:    19.436 HEAT: -23.57697
 CYCLE:    17 TIME:   0.031 TIME LEFT:  2.00D  GRAD.:    43.195 HEAT: -23.83317
 CYCLE:    18 TIME:   0.039 TIME LEFT:  2.00D  GRAD.:    19.699 HEAT: -24.19263
 CYCLE:    19 TIME:   0.031 TIME LEFT:  2.00D  GRAD.:    14.400 HEAT: -24.39445
 CYCLE:    20 TIME:   0.031 TIME LEFT:  2.00D  GRAD.:    12.060 HEAT: -24.54402
 CYCLE:    21 TIME:   0.031 TIME LEFT:  2.00D  GRAD.:    24.463 HEAT: -24.69815
 CYCLE:    22 TIME:   0.031 TIME LEFT:  2.00D  GRAD.:    13.737 HEAT: -24.82909
 CYCLE:    23 TIME:   0.031 TIME LEFT:  2.00D  GRAD.:     9.811 HEAT: -24.90181
 CYCLE:    24 TIME:   0.031 TIME LEFT:  2.00D  GRAD.:     9.920 HEAT: -25.02504
 CYCLE:    25 TIME:   0.031 TIME LEFT:  2.00D  GRAD.:    19.361 HEAT: -25.08445
 CYCLE:    26 TIME:   0.031 TIME LEFT:  2.00D  GRAD.:    10.555 HEAT: -25.16473
 CYCLE:    27 TIME:   0.031 TIME LEFT:  2.00D  GRAD.:     8.459 HEAT: -25.25056
 CYCLE:    28 TIME:   0.031 TIME LEFT:  2.00D  GRAD.:    10.249 HEAT: -25.31539
 CYCLE:    29 TIME:   0.031 TIME LEFT:  2.00D  GRAD.:    16.596 HEAT: -25.44482
 CYCLE:    30 TIME:   0.117 TIME LEFT:  2.00D  GRAD.:    17.161 HEAT: -25.52428
 CYCLE:    31 TIME:   0.031 TIME LEFT:  2.00D  GRAD.:     7.579 HEAT: -25.61797
 CYCLE:    32 TIME:   0.031 TIME LEFT:  2.00D  GRAD.:     7.959 HEAT: -25.68104
 CYCLE:    33 TIME:   0.031 TIME LEFT:  2.00D  GRAD.:    10.115 HEAT: -25.75129
 CYCLE:    34 TIME:   0.031 TIME LEFT:  2.00D  GRAD.:    18.666 HEAT: -25.84656
 CYCLE:    35 TIME:   0.031 TIME LEFT:  2.00D  GRAD.:    11.800 HEAT: -25.95571
 CYCLE:    36 TIME:   0.031 TIME LEFT:  2.00D  GRAD.:     8.667 HEAT: -26.03394
 CYCLE:    37 TIME:   0.031 TIME LEFT:  2.00D  GRAD.:    12.333 HEAT: -26.16826
 CYCLE:    38 TIME:   0.031 TIME LEFT:  2.00D  GRAD.:    18.721 HEAT: -26.23701
 CYCLE:    39 TIME:   0.039 TIME LEFT:  2.00D  GRAD.:    11.239 HEAT: -26.32839
 CYCLE:    40 TIME:   0.031 TIME LEFT:  2.00D  GRAD.:     7.905 HEAT: -26.42728
 CYCLE:    41 TIME:   0.031 TIME LEFT:  2.00D  GRAD.:     8.605 HEAT: -26.48105
 CYCLE:    42 TIME:   0.031 TIME LEFT:  2.00D  GRAD.:    17.775 HEAT: -26.55877
 CYCLE:    43 TIME:   0.031 TIME LEFT:  2.00D  GRAD.:     8.940 HEAT: -26.64738
 CYCLE:    44 TIME:   0.031 TIME LEFT:  2.00D  GRAD.:     7.275 HEAT: -26.69579
 CYCLE:    45 TIME:   0.031 TIME LEFT:  2.00D  GRAD.:     7.258 HEAT: -26.76202
 CYCLE:    46 TIME:   0.031 TIME LEFT:  2.00D  GRAD.:    17.709 HEAT: -26.80062
 CYCLE:    47 TIME:   0.031 TIME LEFT:  2.00D  GRAD.:     9.402 HEAT: -26.87255
 CYCLE:    48 TIME:   0.031 TIME LEFT:  2.00D  GRAD.:     7.892 HEAT: -26.94155
 CYCLE:    49 TIME:   0.039 TIME LEFT:  2.00D  GRAD.:     8.774 HEAT: -27.00412
 CYCLE:    50 TIME:   0.031 TIME LEFT:  2.00D  GRAD.:    14.482 HEAT: -27.09642
 CYCLE:    51 TIME:   0.031 TIME LEFT:  2.00D  GRAD.:    11.057 HEAT: -27.16840
 CYCLE:    52 TIME:   0.031 TIME LEFT:  2.00D  GRAD.:     7.029 HEAT: -27.22471
 CYCLE:    53 TIME:   0.031 TIME LEFT:  2.00D  GRAD.:     7.013 HEAT: -27.27724
 CYCLE:    54 TIME:   0.031 TIME LEFT:  2.00D  GRAD.:    12.377 HEAT: -27.32028
 CYCLE:    55 TIME:   0.031 TIME LEFT:  2.00D  GRAD.:     8.214 HEAT: -27.37691
 CYCLE:    56 TIME:   0.031 TIME LEFT:  2.00D  GRAD.:     6.903 HEAT: -27.43317
 CYCLE:    57 TIME:   0.031 TIME LEFT:  2.00D  GRAD.:     9.245 HEAT: -27.46554
 CYCLE:    58 TIME:   0.039 TIME LEFT:  2.00D  GRAD.:     9.106 HEAT: -27.52323
 CYCLE:    59 TIME:   0.031 TIME LEFT:  2.00D  GRAD.:    11.032 HEAT: -27.63091
 CYCLE:    60 TIME:   0.031 TIME LEFT:  2.00D  GRAD.:    16.761 HEAT: -27.67610
 CYCLE:    61 TIME:   0.031 TIME LEFT:  2.00D  GRAD.:     8.595 HEAT: -27.74159
 CYCLE:    62 TIME:   0.031 TIME LEFT:  2.00D  GRAD.:     6.717 HEAT: -27.79681
 CYCLE:    63 TIME:   0.070 TIME LEFT:  2.00D  GRAD.:     9.592 HEAT: -27.86057
 CYCLE:    64 TIME:   0.039 TIME LEFT:  2.00D  GRAD.:    13.504 HEAT: -27.95823
 CYCLE:    65 TIME:   0.031 TIME LEFT:  2.00D  GRAD.:    12.513 HEAT: -28.03834
 CYCLE:    66 TIME:   0.031 TIME LEFT:  2.00D  GRAD.:    16.717 HEAT: -28.11843
 CYCLE:    67 TIME:   0.031 TIME LEFT:  2.00D  GRAD.:     8.245 HEAT: -28.22409
 CYCLE:    68 TIME:   0.031 TIME LEFT:  2.00D  GRAD.:     7.233 HEAT: -28.26784
 CYCLE:    69 TIME:   0.031 TIME LEFT:  2.00D  GRAD.:    10.987 HEAT: -28.33051
 CYCLE:    70 TIME:   0.031 TIME LEFT:  2.00D  GRAD.:    10.506 HEAT: -28.37832
 CYCLE:    71 TIME:   0.031 TIME LEFT:  2.00D  GRAD.:     6.660 HEAT: -28.41655
 CYCLE:    72 TIME:   0.031 TIME LEFT:  2.00D  GRAD.:     5.373 HEAT: -28.44553
 CYCLE:    73 TIME:   0.031 TIME LEFT:  2.00D  GRAD.:     5.085 HEAT: -28.47126
 CYCLE:    74 TIME:   0.039 TIME LEFT:  2.00D  GRAD.:     7.264 HEAT: -28.49404
 CYCLE:    75 TIME:   0.031 TIME LEFT:  2.00D  GRAD.:     6.620 HEAT: -28.52111
 CYCLE:    76 TIME:   0.023 TIME LEFT:  2.00D  GRAD.:     4.928 HEAT: -28.54333
 CYCLE:    77 TIME:   0.039 TIME LEFT:  2.00D  GRAD.:     4.842 HEAT: -28.57689
 CYCLE:    78 TIME:   0.031 TIME LEFT:  2.00D  GRAD.:     9.905 HEAT: -28.60205
 CYCLE:    79 TIME:   0.031 TIME LEFT:  2.00D  GRAD.:     6.762 HEAT: -28.63395
 CYCLE:    80 TIME:   0.031 TIME LEFT:  2.00D  GRAD.:     5.227 HEAT: -28.67542
 CYCLE:    81 TIME:   0.031 TIME LEFT:  2.00D  GRAD.:     7.116 HEAT: -28.70285
 CYCLE:    82 TIME:   0.039 TIME LEFT:  2.00D  GRAD.:     6.838 HEAT: -28.74066
 CYCLE:    83 TIME:   0.031 TIME LEFT:  2.00D  GRAD.:    11.830 HEAT: -28.78855
 CYCLE:    84 TIME:   0.031 TIME LEFT:  2.00D  GRAD.:     7.040 HEAT: -28.84595
 CYCLE:    85 TIME:   0.031 TIME LEFT:  2.00D  GRAD.:     7.001 HEAT: -28.88870
 CYCLE:    86 TIME:   0.031 TIME LEFT:  2.00D  GRAD.:    10.645 HEAT: -28.92270
 CYCLE:    87 TIME:   0.031 TIME LEFT:  2.00D  GRAD.:     7.481 HEAT: -28.96295
 CYCLE:    88 TIME:   0.039 TIME LEFT:  2.00D  GRAD.:     8.377 HEAT: -29.00054
 CYCLE:    89 TIME:   0.031 TIME LEFT:  2.00D  GRAD.:    10.094 HEAT: -29.03462
 CYCLE:    90 TIME:   0.031 TIME LEFT:  2.00D  GRAD.:    15.638 HEAT: -29.04572
 CYCLE:    91 TIME:   0.031 TIME LEFT:  2.00D  GRAD.:     4.432 HEAT: -29.08200
 CYCLE:    92 TIME:   0.031 TIME LEFT:  2.00D  GRAD.:     3.272 HEAT: -29.09112
 CYCLE:    93 TIME:   0.039 TIME LEFT:  2.00D  GRAD.:     5.447 HEAT: -29.10792
 CYCLE:    94 TIME:   0.023 TIME LEFT:  2.00D  GRAD.:     4.458 HEAT: -29.12598
 CYCLE:    95 TIME:   0.031 TIME LEFT:  2.00D  GRAD.:     4.819 HEAT: -29.14317
 CYCLE:    96 TIME:   0.031 TIME LEFT:  2.00D  GRAD.:     5.402 HEAT: -29.15327
 CYCLE:    97 TIME:   0.031 TIME LEFT:  2.00D  GRAD.:     4.534 HEAT: -29.16206
 CYCLE:    98 TIME:   0.039 TIME LEFT:  2.00D  GRAD.:     4.665 HEAT: -29.17950
 CYCLE:    99 TIME:   0.031 TIME LEFT:  2.00D  GRAD.:     4.365 HEAT: -29.19481
 CYCLE:   100 TIME:   0.031 TIME LEFT:  2.00D  GRAD.:     4.717 HEAT: -29.21206
 CYCLE:   101 TIME:   0.031 TIME LEFT:  2.00D  GRAD.:     6.655 HEAT: -29.22348
 CYCLE:   102 TIME:   0.031 TIME LEFT:  2.00D  GRAD.:     3.501 HEAT: -29.23630
 CYCLE:   103 TIME:   0.031 TIME LEFT:  2.00D  GRAD.:     3.190 HEAT: -29.24562
 CYCLE:   104 TIME:   0.031 TIME LEFT:  2.00D  GRAD.:     3.866 HEAT: -29.25522
 CYCLE:   105 TIME:   0.047 TIME LEFT:  2.00D  GRAD.:     6.112 HEAT: -29.26659
 CYCLE:   106 TIME:   0.031 TIME LEFT:  2.00D  GRAD.:     3.266 HEAT: -29.27777
 CYCLE:   107 TIME:   0.031 TIME LEFT:  2.00D  GRAD.:     3.254 HEAT: -29.28568
 CYCLE:   108 TIME:   0.031 TIME LEFT:  2.00D  GRAD.:     3.450 HEAT: -29.29551
 CYCLE:   109 TIME:   0.039 TIME LEFT:  2.00D  GRAD.:     6.451 HEAT: -29.30189
 CYCLE:   110 TIME:   0.023 TIME LEFT:  2.00D  GRAD.:     2.683 HEAT: -29.31449
 CYCLE:   111 TIME:   0.039 TIME LEFT:  2.00D  GRAD.:     2.998 HEAT: -29.32038
 CYCLE:   112 TIME:   0.031 TIME LEFT:  2.00D  GRAD.:     3.760 HEAT: -29.33142
 CYCLE:   113 TIME:   0.031 TIME LEFT:  2.00D  GRAD.:     5.627 HEAT: -29.34302
 CYCLE:   114 TIME:   0.031 TIME LEFT:  2.00D  GRAD.:     4.092 HEAT: -29.35170
 CYCLE:   115 TIME:   0.031 TIME LEFT:  2.00D  GRAD.:     2.901 HEAT: -29.35755
 CYCLE:   116 TIME:   0.031 TIME LEFT:  2.00D  GRAD.:     2.245 HEAT: -29.36091
 CYCLE:   117 TIME:   0.031 TIME LEFT:  2.00D  GRAD.:     2.778 HEAT: -29.36920
 CYCLE:   118 TIME:   0.039 TIME LEFT:  2.00D  GRAD.:     3.118 HEAT: -29.37675
 CYCLE:   119 TIME:   0.039 TIME LEFT:  2.00D  GRAD.:    30.467 HEAT: -29.20255
 CYCLE:   120 TIME:   0.031 TIME LEFT:  2.00D  GRAD.:     2.548 HEAT: -29.39005
 CYCLE:   121 TIME:   0.031 TIME LEFT:  2.00D  GRAD.:     2.039 HEAT: -29.39352
 CYCLE:   122 TIME:   0.031 TIME LEFT:  2.00D  GRAD.:     6.677 HEAT: -29.38588
 CYCLE:   123 TIME:   0.031 TIME LEFT:  2.00D  GRAD.:     7.109 HEAT: -29.39605
 CYCLE:   124 TIME:   0.031 TIME LEFT:  2.00D  GRAD.:    25.852 HEAT: -29.30222
 CYCLE:   125 TIME:   0.039 TIME LEFT:  2.00D  GRAD.:     4.167 HEAT: -29.41201
 CYCLE:   126 TIME:   0.031 TIME LEFT:  2.00D  GRAD.:     2.337 HEAT: -29.41625
 CYCLE:   127 TIME:   0.031 TIME LEFT:  2.00D  GRAD.:     2.169 HEAT: -29.42514
 CYCLE:   128 TIME:   0.039 TIME LEFT:  2.00D  GRAD.:     5.958 HEAT: -29.43009
 CYCLE:   129 TIME:   0.031 TIME LEFT:  2.00D  GRAD.:     9.854 HEAT: -29.43707
 CYCLE:   130 TIME:   0.031 TIME LEFT:  2.00D  GRAD.:     3.191 HEAT: -29.45543
 CYCLE:   131 TIME:   0.031 TIME LEFT:  2.00D  GRAD.:     2.512 HEAT: -29.46542
 CYCLE:   132 TIME:   0.039 TIME LEFT:  2.00D  GRAD.:     5.082 HEAT: -29.46430
 CYCLE:   133 TIME:   0.031 TIME LEFT:  2.00D  GRAD.:    34.283 HEAT: -29.24435
 CYCLE:   134 TIME:   0.031 TIME LEFT:  2.00D  GRAD.:     8.680 HEAT: -29.47125
 CYCLE:   135 TIME:   0.039 TIME LEFT:  2.00D  GRAD.:     4.937 HEAT: -29.50164
 CYCLE:   136 TIME:   0.031 TIME LEFT:  2.00D  GRAD.:     3.589 HEAT: -29.50721
 CYCLE:   137 TIME:   0.031 TIME LEFT:  2.00D  GRAD.:     4.267 HEAT: -29.51778
 CYCLE:   138 TIME:   0.039 TIME LEFT:  2.00D  GRAD.:     4.990 HEAT: -29.53850
 CYCLE:   139 TIME:   0.031 TIME LEFT:  2.00D  GRAD.:    11.936 HEAT: -29.52548
 CYCLE:   140 TIME:   0.031 TIME LEFT:  2.00D  GRAD.:     6.829 HEAT: -29.56627
 CYCLE:   141 TIME:   0.039 TIME LEFT:  2.00D  GRAD.:     3.454 HEAT: -29.57294
 CYCLE:   142 TIME:   0.039 TIME LEFT:  2.00D  GRAD.:     2.039 HEAT: -29.57895
 CYCLE:   143 TIME:   0.039 TIME LEFT:  2.00D  GRAD.:    31.034 HEAT: -29.47445
 CYCLE:   144 TIME:   0.039 TIME LEFT:  2.00D  GRAD.:     4.584 HEAT: -29.57632
 CYCLE:   145 TIME:   0.039 TIME LEFT:  2.00D  GRAD.:    22.591 HEAT: -29.55235
 CYCLE:   146 TIME:   0.031 TIME LEFT:  2.00D  GRAD.:     7.294 HEAT: -29.60615
 CYCLE:   147 TIME:   0.031 TIME LEFT:  2.00D  GRAD.:     3.906 HEAT: -29.61286
 CYCLE:   148 TIME:   0.031 TIME LEFT:  2.00D  GRAD.:     2.323 HEAT: -29.62725
 CYCLE:   149 TIME:   0.039 TIME LEFT:  2.00D  GRAD.:     6.463 HEAT: -29.64943
 CYCLE:   150 TIME:   0.031 TIME LEFT:  2.00D  GRAD.:     5.918 HEAT: -29.67264
 CYCLE:   151 TIME:   0.031 TIME LEFT:  2.00D  GRAD.:     8.523 HEAT: -29.70443
 CYCLE:   152 TIME:   0.039 TIME LEFT:  2.00D  GRAD.:   152.389 HEAT: -25.65979
 CYCLE:   153 TIME:   0.039 TIME LEFT:  2.00D  GRAD.:     8.597 HEAT: -29.61225
 CYCLE:   154 TIME:   0.039 TIME LEFT:  2.00D  GRAD.:     3.649 HEAT: -29.74255
 CYCLE:   155 TIME:   0.031 TIME LEFT:  2.00D  GRAD.:    23.605 HEAT: -29.62573
 CYCLE:   156 TIME:   0.039 TIME LEFT:  2.00D  GRAD.:     8.189 HEAT: -29.81455
 CYCLE:   157 TIME:   0.031 TIME LEFT:  2.00D  GRAD.:     7.834 HEAT: -29.82695
 CYCLE:   158 TIME:   0.031 TIME LEFT:  2.00D  GRAD.:    25.999 HEAT: -29.75515
 CYCLE:   159 TIME:   0.039 TIME LEFT:  2.00D  GRAD.:     6.198 HEAT: -29.88538
 CYCLE:   160 TIME:   0.031 TIME LEFT:  2.00D  GRAD.:     4.028 HEAT: -29.89857
 CYCLE:   161 TIME:   0.031 TIME LEFT:  2.00D  GRAD.:     4.628 HEAT: -29.94172
 CYCLE:   162 TIME:   0.039 TIME LEFT:  2.00D  GRAD.:    14.227 HEAT: -30.00408
 CYCLE:   163 TIME:   0.031 TIME LEFT:  2.00D  GRAD.:    64.438 HEAT: -29.09688
 CYCLE:   164 TIME:   0.039 TIME LEFT:  2.00D  GRAD.:    50.946 HEAT: -29.44549
 CYCLE:   165 TIME:   0.031 TIME LEFT:  2.00D  GRAD.:    18.587 HEAT: -29.98880
 CYCLE:   166 TIME:   0.039 TIME LEFT:  2.00D  GRAD.:    37.658 HEAT: -29.80665
 CYCLE:   167 TIME:   0.039 TIME LEFT:  2.00D  GRAD.:    10.582 HEAT: -30.10610
 CYCLE:   168 TIME:   0.031 TIME LEFT:  2.00D  GRAD.:     4.298 HEAT: -30.13234
 CYCLE:   169 TIME:   0.031 TIME LEFT:  2.00D  GRAD.:     6.362 HEAT: -30.15979
 CYCLE:   170 TIME:   0.039 TIME LEFT:  2.00D  GRAD.:     9.296 HEAT: -30.19078
 CYCLE:   171 TIME:   0.031 TIME LEFT:  2.00D  GRAD.:    15.410 HEAT: -30.23547
 CYCLE:   172 TIME:   0.031 TIME LEFT:  2.00D  GRAD.:     6.302 HEAT: -30.30562
 CYCLE:   173 TIME:   0.031 TIME LEFT:  2.00D  GRAD.:     7.291 HEAT: -30.37221
 CYCLE:   174 TIME:   0.039 TIME LEFT:  2.00D  GRAD.:    10.780 HEAT: -30.40227
 CYCLE:   175 TIME:   0.031 TIME LEFT:  2.00D  GRAD.:     8.456 HEAT: -30.42460
 CYCLE:   176 TIME:   0.031 TIME LEFT:  2.00D  GRAD.:     4.917 HEAT: -30.45893
 CYCLE:   177 TIME:   0.031 TIME LEFT:  2.00D  GRAD.:     5.090 HEAT: -30.48442
 CYCLE:   178 TIME:   0.031 TIME LEFT:  2.00D  GRAD.:     8.284 HEAT: -30.51178
 CYCLE:   179 TIME:   0.039 TIME LEFT:  2.00D  GRAD.:     6.384 HEAT: -30.53250
 CYCLE:   180 TIME:   0.031 TIME LEFT:  2.00D  GRAD.:    12.646 HEAT: -30.49856
 CYCLE:   181 TIME:   0.039 TIME LEFT:  2.00D  GRAD.:     8.829 HEAT: -30.55390
 CYCLE:   182 TIME:   0.031 TIME LEFT:  2.00D  GRAD.:     3.534 HEAT: -30.57056
 CYCLE:   183 TIME:   0.031 TIME LEFT:  2.00D  GRAD.:     2.268 HEAT: -30.57618
 CYCLE:   184 TIME:   0.031 TIME LEFT:  2.00D  GRAD.:     4.466 HEAT: -30.58515
 CYCLE:   185 TIME:   0.031 TIME LEFT:  2.00D  GRAD.:     2.744 HEAT: -30.59217
 CYCLE:   186 TIME:   0.031 TIME LEFT:  2.00D  GRAD.:     1.986 HEAT: -30.59993
 CYCLE:   187 TIME:   0.039 TIME LEFT:  2.00D  GRAD.:     3.858 HEAT: -30.60317
 CYCLE:   188 TIME:   0.031 TIME LEFT:  2.00D  GRAD.:     2.208 HEAT: -30.60693
 CYCLE:   189 TIME:   0.031 TIME LEFT:  2.00D  GRAD.:     1.667 HEAT: -30.60955
 CYCLE:   190 TIME:   0.031 TIME LEFT:  2.00D  GRAD.:     1.910 HEAT: -30.61282
 CYCLE:   191 TIME:   0.031 TIME LEFT:  2.00D  GRAD.:     2.834 HEAT: -30.61894
 CYCLE:   192 TIME:   0.031 TIME LEFT:  2.00D  GRAD.:     3.190 HEAT: -30.62356
 CYCLE:   193 TIME:   0.031 TIME LEFT:  2.00D  GRAD.:     2.023 HEAT: -30.62729
 CYCLE:   194 TIME:   0.055 TIME LEFT:  2.00D  GRAD.:     1.873 HEAT: -30.63082
 CYCLE:   195 TIME:   0.031 TIME LEFT:  2.00D  GRAD.:     2.248 HEAT: -30.63450
 CYCLE:   196 TIME:   0.031 TIME LEFT:  2.00D  GRAD.:     2.564 HEAT: -30.63923
 CYCLE:   197 TIME:   0.031 TIME LEFT:  2.00D  GRAD.:     4.441 HEAT: -30.64066
 CYCLE:   198 TIME:   0.031 TIME LEFT:  2.00D  GRAD.:     4.273 HEAT: -30.64510
 CYCLE:   199 TIME:   0.031 TIME LEFT:  2.00D  GRAD.:     1.999 HEAT: -30.64869
 CYCLE:   200 TIME:   0.031 TIME LEFT:  2.00D  GRAD.:     2.121 HEAT: -30.65263
 CYCLE:   201 TIME:   0.039 TIME LEFT:  2.00D  GRAD.:     2.416 HEAT: -30.65165
 CYCLE:   202 TIME:   0.039 TIME LEFT:  2.00D  GRAD.:     4.653 HEAT: -30.65688
 CYCLE:   203 TIME:   0.031 TIME LEFT:  2.00D  GRAD.:     4.133 HEAT: -30.65990
 CYCLE:   204 TIME:   0.031 TIME LEFT:  2.00D  GRAD.:     1.388 HEAT: -30.66290
 CYCLE:   205 TIME:   0.031 TIME LEFT:  2.00D  GRAD.:     1.214 HEAT: -30.66416
 CYCLE:   206 TIME:   0.031 TIME LEFT:  2.00D  GRAD.:     1.779 HEAT: -30.66753
 CYCLE:   207 TIME:   0.039 TIME LEFT:  2.00D  GRAD.:     2.796 HEAT: -30.67088
 CYCLE:   208 TIME:   0.031 TIME LEFT:  2.00D  GRAD.:     2.613 HEAT: -30.67575
 CYCLE:   209 TIME:   0.039 TIME LEFT:  2.00D  GRAD.:     5.560 HEAT: -30.67969
 CYCLE:   210 TIME:   0.023 TIME LEFT:  2.00D  GRAD.:     2.270 HEAT: -30.68665
 CYCLE:   211 TIME:   0.031 TIME LEFT:  2.00D  GRAD.:     1.832 HEAT: -30.69017
 CYCLE:   212 TIME:   0.039 TIME LEFT:  2.00D  GRAD.:     1.810 HEAT: -30.69225
 CYCLE:   213 TIME:   0.031 TIME LEFT:  2.00D  GRAD.:     3.652 HEAT: -30.69646
 CYCLE:   214 TIME:   0.031 TIME LEFT:  2.00D  GRAD.:     2.683 HEAT: -30.70201
 CYCLE:   215 TIME:   0.031 TIME LEFT:  2.00D  GRAD.:     1.989 HEAT: -30.70685
 CYCLE:   216 TIME:   0.047 TIME LEFT:  2.00D  GRAD.:     4.133 HEAT: -30.70990
 CYCLE:   217 TIME:   0.023 TIME LEFT:  2.00D  GRAD.:     2.247 HEAT: -30.71605
 CYCLE:   218 TIME:   0.039 TIME LEFT:  2.00D  GRAD.:     1.799 HEAT: -30.71821
 CYCLE:   219 TIME:   0.031 TIME LEFT:  2.00D  GRAD.:     2.454 HEAT: -30.72289
 CYCLE:   220 TIME:   0.031 TIME LEFT:  2.00D  GRAD.:     3.290 HEAT: -30.73037
 CYCLE:   221 TIME:   0.031 TIME LEFT:  2.00D  GRAD.:     4.855 HEAT: -30.73537
 CYCLE:   222 TIME:   0.031 TIME LEFT:  2.00D  GRAD.:     2.284 HEAT: -30.74164
 CYCLE:   223 TIME:   0.031 TIME LEFT:  2.00D  GRAD.:     1.980 HEAT: -30.74471
 CYCLE:   224 TIME:   0.031 TIME LEFT:  2.00D  GRAD.:     2.232 HEAT: -30.74829
 CYCLE:   225 TIME:   0.039 TIME LEFT:  2.00D  GRAD.:     3.128 HEAT: -30.75223
 CYCLE:   226 TIME:   0.031 TIME LEFT:  2.00D  GRAD.:     2.277 HEAT: -30.75624
 CYCLE:   227 TIME:   0.031 TIME LEFT:  2.00D  GRAD.:     2.356 HEAT: -30.76383
 CYCLE:   228 TIME:   0.031 TIME LEFT:  2.00D  GRAD.:     4.047 HEAT: -30.76812
 CYCLE:   229 TIME:   0.031 TIME LEFT:  2.00D  GRAD.:     2.765 HEAT: -30.77355
 CYCLE:   230 TIME:   0.031 TIME LEFT:  2.00D  GRAD.:     2.304 HEAT: -30.77998
 CYCLE:   231 TIME:   0.039 TIME LEFT:  2.00D  GRAD.:     4.077 HEAT: -30.78219
 CYCLE:   232 TIME:   0.031 TIME LEFT:  2.00D  GRAD.:     1.720 HEAT: -30.78582
 CYCLE:   233 TIME:   0.023 TIME LEFT:  2.00D  GRAD.:     1.159 HEAT: -30.78811
 CYCLE:   234 TIME:   0.039 TIME LEFT:  2.00D  GRAD.:     2.896 HEAT: -30.79155
 CYCLE:   235 TIME:   0.031 TIME LEFT:  2.00D  GRAD.:     2.173 HEAT: -30.79460
 CYCLE:   236 TIME:   0.031 TIME LEFT:  2.00D  GRAD.:     1.459 HEAT: -30.79880
 CYCLE:   237 TIME:   0.039 TIME LEFT:  2.00D  GRAD.:     2.957 HEAT: -30.80149
 CYCLE:   238 TIME:   0.031 TIME LEFT:  2.00D  GRAD.:     1.735 HEAT: -30.80504
 CYCLE:   239 TIME:   0.031 TIME LEFT:  2.00D  GRAD.:     1.852 HEAT: -30.80792
 CYCLE:   240 TIME:   0.039 TIME LEFT:  2.00D  GRAD.:     2.215 HEAT: -30.81096
 CYCLE:   241 TIME:   0.031 TIME LEFT:  2.00D  GRAD.:     6.480 HEAT: -30.81020
 CYCLE:   242 TIME:   0.031 TIME LEFT:  2.00D  GRAD.:     1.875 HEAT: -30.81714
 CYCLE:   243 TIME:   0.031 TIME LEFT:  2.00D  GRAD.:     1.373 HEAT: -30.81871
 CYCLE:   244 TIME:   0.031 TIME LEFT:  2.00D  GRAD.:     2.695 HEAT: -30.82080
 CYCLE:   245 TIME:   0.031 TIME LEFT:  2.00D  GRAD.:     3.393 HEAT: -30.82376
 CYCLE:   246 TIME:   0.031 TIME LEFT:  2.00D  GRAD.:     1.684 HEAT: -30.82739
 CYCLE:   247 TIME:   0.039 TIME LEFT:  2.00D  GRAD.:     1.888 HEAT: -30.83112
 CYCLE:   248 TIME:   0.031 TIME LEFT:  2.00D  GRAD.:     2.817 HEAT: -30.83362
 CYCLE:   249 TIME:   0.031 TIME LEFT:  2.00D  GRAD.:     6.307 HEAT: -30.83513
 CYCLE:   250 TIME:   0.031 TIME LEFT:  2.00D  GRAD.:     2.283 HEAT: -30.84184
 CYCLE:   251 TIME:   0.031 TIME LEFT:  2.00D  GRAD.:     1.561 HEAT: -30.84445
 CYCLE:   252 TIME:   0.039 TIME LEFT:  2.00D  GRAD.:     2.755 HEAT: -30.84688
 CYCLE:   253 TIME:   0.031 TIME LEFT:  2.00D  GRAD.:     2.042 HEAT: -30.85020
 CYCLE:   254 TIME:   0.031 TIME LEFT:  2.00D  GRAD.:     2.866 HEAT: -30.85110
 CYCLE:   255 TIME:   0.031 TIME LEFT:  2.00D  GRAD.:     1.476 HEAT: -30.85309
 CYCLE:   256 TIME:   0.031 TIME LEFT:  2.00D  GRAD.:     2.555 HEAT: -30.85538
 CYCLE:   257 TIME:   0.031 TIME LEFT:  2.00D  GRAD.:     1.638 HEAT: -30.85732
 CYCLE:   258 TIME:   0.039 TIME LEFT:  2.00D  GRAD.:     2.788 HEAT: -30.86089
 CYCLE:   259 TIME:   0.031 TIME LEFT:  2.00D  GRAD.:     1.994 HEAT: -30.86321
 CYCLE:   260 TIME:   0.031 TIME LEFT:  2.00D  GRAD.:     1.665 HEAT: -30.86557
 CYCLE:   261 TIME:   0.039 TIME LEFT:  2.00D  GRAD.:     1.467 HEAT: -30.86909
 CYCLE:   262 TIME:   0.039 TIME LEFT:  2.00D  GRAD.:     2.343 HEAT: -30.87120
 CYCLE:   263 TIME:   0.023 TIME LEFT:  2.00D  GRAD.:     1.011 HEAT: -30.87295
 CYCLE:   264 TIME:   0.039 TIME LEFT:  2.00D  GRAD.:     1.421 HEAT: -30.87425
 CYCLE:   265 TIME:   0.031 TIME LEFT:  2.00D  GRAD.:     1.456 HEAT: -30.87565
 CYCLE:   266 TIME:   0.031 TIME LEFT:  2.00D  GRAD.:     1.448 HEAT: -30.87809
 CYCLE:   267 TIME:   0.031 TIME LEFT:  2.00D  GRAD.:     2.028 HEAT: -30.87894
 CYCLE:   268 TIME:   0.031 TIME LEFT:  2.00D  GRAD.:     1.257 HEAT: -30.87998
 CYCLE:   269 TIME:   0.039 TIME LEFT:  2.00D  GRAD.:     0.918 HEAT: -30.88119

 -------------------------------------------------------------------------------
 PM7 XYZ

 Lipophilicity_470 - geometry optimisation


     HERBERTS TEST WAS SATISFIED IN BFGS                      
     SCF FIELD WAS ACHIEVED                                   


                              PM7 CALCULATION
                                                       MOPAC v23.0.3 Linux
                                                       Fri Jul 25 19:53:56 2025




          FINAL HEAT OF FORMATION =        -30.88119 KCAL/MOL =    -129.20691 KJ/MOL


          COSMO AREA              =        388.38 SQUARE ANGSTROMS
          COSMO VOLUME            =        417.44 CUBIC ANGSTROMS

          GRADIENT NORM           =          0.91792          =       0.13684 PER ATOM
          IONIZATION POTENTIAL    =          8.475257 EV
          HOMO LUMO ENERGIES (EV) =         -8.475 -1.209
          NO. OF FILLED LEVELS    =         72
          MOLECULAR WEIGHT        =        384.3691         POINT GROUP:  C1  

          MOLECULAR DIMENSIONS (Angstroms)

            Atom       Atom       Distance
            H    40    H    29    18.75536
            H    42    O    14     6.10781
            H    43    H    39     3.39756


          SCF CALCULATIONS        =        270

          WALL-CLOCK TIME         =      9.141 SECONDS
          COMPUTATION TIME        =          3 MINUTES AND 1.958 SECONDS




   ATOM   CHEMICAL          X               Y               Z
  NUMBER   SYMBOL      (ANGSTROMS)     (ANGSTROMS)     (ANGSTROMS)

     1       F         -9.23004428  *   1.47378254  *   1.16852263  *
     2       C         -8.52234820  *   0.76614120  *   0.30389801  *
     3       C         -9.17271341  *   0.22880653  *  -0.80563607  *
     4       C         -8.41399225  *  -0.51188424  *  -1.71014763  *
     5       C         -7.05159916  *  -0.70599871  *  -1.50836343  *
     6       C         -6.42817431  *  -0.14757064  *  -0.37673005  *
     7       N         -5.04215239  *  -0.40772358  *  -0.23174445  *
     8       C         -4.25096094  *   0.20323671  *   0.69112474  *
     9       O         -2.87760404  *   0.11876257  *   0.44027910  *
    10       C         -2.30214970  *   0.78384785  *   1.53562834  *
    11       N         -3.24999140  *   1.21508897  *   2.34780799  *
    12       N         -4.45564945  *   0.86152889  *   1.85113450  *
    13       C         -0.82669293  *   0.90228372  *   1.56838673  *
    14       O         -0.25965448  *   1.64744556  *   2.33119809  *
    15       N         -0.17537956  *   0.10683428  *   0.64223135  *
    16       C          1.23653781  *   0.08525427  *   0.52680519  *
    17       C          2.03930791  *   1.20388544  *   0.79496995  *
    18       C          3.41073130  *   1.10913593  *   0.62889318  *
    19       C          3.97033846  *  -0.11400753  *   0.18418672  *
    20       N          3.18668558  *  -1.20446861  *  -0.05950942  *
    21       C          1.86253075  *  -1.10465871  *   0.10392959  *
    22       N          5.32295458  *  -0.22775780  *  -0.15074254  *
    23       C          6.29251351  *   0.46341092  *   0.72578932  *
    24       C          7.63261874  *   0.55482593  *  -0.03043097  *
    25       O          8.08326923  *  -0.74053473  *  -0.37283073  *
    26       C          7.17593574  *  -1.40971965  *  -1.22950247  *
    27       C          5.80348442  *  -1.56838165  *  -0.55315702  *
    28       C         -7.16070320  *   0.59800213  *   0.55009454  *
    29       H        -10.23812402  *   0.37832914  *  -0.96486155  *
    30       H         -8.89430027  *  -0.94358478  *  -2.59022829  *
    31       H         -6.48119869  *  -1.28993962  *  -2.22584655  *
    32       H         -4.57318582  *  -0.89490928  *  -0.99669256  *
    33       H         -0.69689788  *  -0.52153706  *   0.04437525  *
    34       H          1.59059976  *   2.14379127  *   1.13218878  *
    35       H          4.04253380  *   1.97118446  *   0.81820979  *
    36       H          1.29135975  *  -2.01715100  *  -0.10532181  *
    37       H          6.43276739  *  -0.08737364  *   1.68318219  *
    38       H          5.93243446  *   1.48343116  *   0.97602017  *
    39       H          7.54706832  *   1.17632394  *  -0.93944114  *
    40       H          8.44215998  *   0.94085435  *   0.61435008  *
    41       H          7.09935008  *  -0.86518155  *  -2.18702339  *
    42       H          7.66530622  *  -2.38682972  *  -1.39150435  *
    43       H          5.86675073  *  -2.25645179  *   0.31761802  *
    44       H          5.07706083  *  -2.02281771  *  -1.26785836  *
    45       H         -6.70077450  *   1.03715014  *   1.44343632  *

                             CARTESIAN COORDINATES

   1    F       -9.230044279     1.473782540     1.168522626
   2    C       -8.522348199     0.766141202     0.303898006
   3    C       -9.172713413     0.228806534    -0.805636068
   4    C       -8.413992245    -0.511884240    -1.710147635
   5    C       -7.051599160    -0.705998712    -1.508363428
   6    C       -6.428174313    -0.147570641    -0.376730051
   7    N       -5.042152390    -0.407723585    -0.231744453
   8    C       -4.250960945     0.203236712     0.691124735
   9    O       -2.877604038     0.118762565     0.440279097
  10    C       -2.302149705     0.783847853     1.535628341
  11    N       -3.249991402     1.215088973     2.347807993
  12    N       -4.455649451     0.861528886     1.851134504
  13    C       -0.826692931     0.902283719     1.568386733
  14    O       -0.259654478     1.647445562     2.331198086
  15    N       -0.175379560     0.106834285     0.642231353
  16    C        1.236537811     0.085254272     0.526805189
  17    C        2.039307914     1.203885437     0.794969947
  18    C        3.410731302     1.109135927     0.628893180
  19    C        3.970338455    -0.114007533     0.184186724
  20    N        3.186685584    -1.204468606    -0.059509420
  21    C        1.862530746    -1.104658712     0.103929589
  22    N        5.322954580    -0.227757796    -0.150742542
  23    C        6.292513507     0.463410918     0.725789324
  24    C        7.632618736     0.554825935    -0.030430970
  25    O        8.083269227    -0.740534734    -0.372830734
  26    C        7.175935745    -1.409719648    -1.229502473
  27    C        5.803484417    -1.568381646    -0.553157022
  28    C       -7.160703204     0.598002128     0.550094543
  29    H      -10.238124015     0.378329135    -0.964861546
  30    H       -8.894300267    -0.943584782    -2.590228288
  31    H       -6.481198685    -1.289939621    -2.225846545
  32    H       -4.573185819    -0.894909277    -0.996692560
  33    H       -0.696897878    -0.521537060     0.044375247
  34    H        1.590599759     2.143791271     1.132188780
  35    H        4.042533796     1.971184458     0.818209788
  36    H        1.291359745    -2.017150996    -0.105321810
  37    H        6.432767392    -0.087373640     1.683182186
  38    H        5.932434456     1.483431164     0.976020168
  39    H        7.547068319     1.176323941    -0.939441141
  40    H        8.442159979     0.940854353     0.614350082
  41    H        7.099350075    -0.865181551    -2.187023388
  42    H        7.665306224    -2.386829719    -1.391504352
  43    H        5.866750733    -2.256451792     0.317618021
  44    H        5.077060834    -2.022817715    -1.267858359
  45    H       -6.700774497     1.037150137     1.443436323


           Empirical Formula: C18 H17 N6 O3 F  =    45 atoms



      MOLECULAR POINT GROUP   :   C1  


                  EIGENVALUES  
 -41.46228 -40.06066 -38.38082 -37.62335 -36.95087 -35.29871 -31.67148 -31.22527
 -31.12450 -29.98188 -29.90511 -28.55493 -26.91156 -26.67780 -26.47089 -26.42730
 -25.34772 -24.23793 -23.46675 -23.29835 -22.34214 -22.01013 -21.65392 -21.30451
 -20.70193 -20.26149 -19.30171 -19.12294 -18.64421 -18.38660 -17.64661 -17.51372
 -17.16560 -17.04424 -17.00130 -16.82119 -16.56063 -16.44669 -16.12790 -16.06178
 -15.85543 -15.70382 -15.38662 -15.22936 -15.16749 -15.06361 -14.95504 -14.77845
 -14.66618 -14.29070 -13.98879 -13.57204 -13.51466 -13.42522 -13.15399 -13.00126
 -12.94454 -12.65525 -12.47227 -12.43410 -12.21104 -11.98397 -11.65130 -11.29706
 -10.97788 -10.87613 -10.60315 -10.48319 -10.36768  -9.99838  -9.42107  -8.47526
  -1.20913  -0.56211  -0.52023  -0.36333  -0.23963  -0.08806   0.40860   0.83670
   1.07478   1.28245   1.66176   1.76572   1.88175   2.16756   2.39212   2.45783
   2.63063   2.70239   3.10336   3.22145   3.30823   3.47837   3.55797   3.70544
   3.76394   3.83358   3.89068   3.91824   4.06183   4.17877   4.24706   4.25164
   4.37455   4.63267   4.78254   4.85258   4.93482   4.95650   4.96933   5.14571
   5.20821   5.28963   5.31961   5.32666   5.40771   5.43867   5.55764   5.65028
   5.66558   5.72703   5.79679   5.84954   5.88932   5.90950   5.91692   6.02553
   6.18126


              NET ATOMIC CHARGES AND DIPOLE CONTRIBUTIONS

  ATOM NO.   TYPE          CHARGE      No. of ELECS.   s-Pop       p-Pop       
    1          F          -0.158793        7.1588     1.96624     5.19256
    2          C           0.260929        3.7391     1.09685     2.64222
    3          C          -0.265548        4.2655     1.07861     3.18694
    4          C          -0.044525        4.0445     1.08383     2.96070
    5          C          -0.277890        4.2779     1.07408     3.20381
    6          C           0.245073        3.7549     1.05508     2.69985
    7          N          -0.460074        5.4601     1.51973     3.94034
    8          C           0.420842        3.5792     1.09842     2.48073
    9          O          -0.325585        6.3256     1.88218     4.44340
   10          C           0.071961        3.9280     1.14117     2.78687
   11          N          -0.078676        5.0787     1.76922     3.30946
   12          N          -0.282441        5.2824     1.79659     3.48585
   13          C           0.586008        3.4140     1.05020     2.36379
   14          O          -0.423543        6.4235     1.88220     4.54134
   15          N          -0.531274        5.5313     1.53982     3.99146
   16          C           0.021997        3.9780     1.04457     2.93343
   17          C          -0.050046        4.0500     1.09041     2.95963
   18          C          -0.307945        4.3079     1.07714     3.23081
   19          C           0.352191        3.6478     1.06157     2.58624
   20          N          -0.455211        5.4552     1.74488     3.71033
   21          C           0.051816        3.9482     1.09301     2.85518
   22          N          -0.395383        5.3954     1.61229     3.78309
   23          C          -0.133446        4.1334     1.07565     3.05779
   24          C          -0.048660        4.0487     1.09137     2.95729
   25          O          -0.378880        6.3789     1.88099     4.49789
   26          C          -0.054184        4.0542     1.09224     2.96194
   27          C          -0.126987        4.1270     1.07462     3.05237
   28          C          -0.294394        4.2944     1.08145     3.21295
   29          H           0.177985        0.8220     0.82202
   30          H           0.156491        0.8435     0.84351
   31          H           0.164519        0.8355     0.83548
   32          H           0.333752        0.6662     0.66625
   33          H           0.322153        0.6778     0.67785
   34          H           0.191643        0.8084     0.80836
   35          H           0.174383        0.8256     0.82562
   36          H           0.174011        0.8260     0.82599
   37          H           0.144601        0.8554     0.85540
   38          H           0.149717        0.8503     0.85028
   39          H           0.132603        0.8674     0.86740
   40          H           0.143027        0.8570     0.85697
   41          H           0.130787        0.8692     0.86921
   42          H           0.143180        0.8568     0.85682
   43          H           0.144856        0.8551     0.85514
   44          H           0.173822        0.8262     0.82618
   45          H           0.225138        0.7749     0.77486
 DIPOLE           X         Y         Z       TOTAL
 POINT-CHG.    -0.124    -2.446    -5.706     6.210
 HYBRID         0.222    -0.728    -0.947     1.215
 SUM            0.098    -3.173    -6.653     7.372


          ATOMIC ORBITAL ELECTRON POPULATIONS

     Atom    s        px        py        pz   
    1  F   1.96624   1.77267   1.75613   1.66376
    2  C   1.09685   0.90277   0.87051   0.86894
    3  C   1.07861   1.10159   1.06884   1.01650
    4  C   1.08383   0.97973   0.95298   1.02799
    5  C   1.07408   1.03416   1.11560   1.05405
    6  C   1.05508   0.77422   0.95611   0.96952
    7  N   1.51973   1.12455   1.50217   1.31361
    8  C   1.09842   0.73118   0.88456   0.86498
    9  O   1.88218   1.27525   1.67929   1.48886
   10  C   1.14117   0.97004   0.98486   0.83197
   11  N   1.76922   0.94912   1.13237   1.22797
   12  N   1.79659   1.14037   1.24748   1.09801
   13  C   1.05020   0.81507   0.78042   0.76830
   14  O   1.88220   1.70094   1.41348   1.42692
   15  N   1.53982   1.12832   1.45609   1.40705
   16  C   1.04457   0.81005   1.00586   1.11752
   17  C   1.09041   0.98206   1.04872   0.92885
   18  C   1.07714   1.03353   1.05712   1.14016
   19  C   1.06157   0.83838   0.88616   0.86169
   20  N   1.74488   1.12390   1.32964   1.25679
   21  C   1.09301   0.90069   1.01391   0.94058
   22  N   1.61229   1.06628   1.25610   1.46071
   23  C   1.07565   0.95718   1.08930   1.01132
   24  C   1.09137   1.00061   0.87096   1.08573
   25  O   1.88099   1.45965   1.33472   1.70353
   26  C   1.09224   0.92534   1.05223   0.98437
   27  C   1.07462   1.03456   0.89041   1.12740
   28  C   1.08145   1.00906   1.09632   1.10756
   29  H   0.82202
   30  H   0.84351
   31  H   0.83548
   32  H   0.66625
   33  H   0.67785
   34  H   0.80836
   35  H   0.82562
   36  H   0.82599
   37  H   0.85540
   38  H   0.85028
   39  H   0.86740
   40  H   0.85697
   41  H   0.86921
   42  H   0.85682
   43  H   0.85514
   44  H   0.82618
   45  H   0.77486

 **********************
 *                    *
 * JOB ENDED NORMALLY *
 *                    *
 **********************



 TOTAL JOB TIME:             9.14 SECONDS

 == MOPAC DONE ==
