 *******************************************************************************
 **                                                                           **
 **                              MOPAC v23.0.3                                **
 **                                                                           **
 *******************************************************************************
 **          Digital Object Identifier (DOI): 10.5281/zenodo.6511958          **
 **    Visit the DOI location for information on how to cite this program.    **
 *******************************************************************************

                              PM7 CALCULATION RESULTS

 *******************************************************************************
 *  CALCULATION DONE:                                Fri Jul 25 18:13:57 2025  *
 *  PM7        - The PM7 Hamiltonian to be used
 *  XYZ        - CARTESIAN COORDINATE SYSTEM TO BE USED
 *  T=         - A TIME OF 172800.0 SECONDS REQUESTED
 *  DUMP=N     - RESTART FILE WRITTEN EVERY 7200.0 SECONDS REQUESTED
 *******************************************************************************
PM7 XYZ

 Lipophilicity_1795 - geometry optimisation
   ATOM   CHEMICAL          X               Y               Z
  NUMBER   SYMBOL      (ANGSTROMS)     (ANGSTROMS)     (ANGSTROMS)

     1       C         -7.75702100  *  -0.65628200  *   0.77729400  *
     2       C         -6.52801300  *  -0.08406200  *   1.40249400  *
     3       C         -5.27558400  *  -0.02066100  *   0.82750000  *
     4       C         -4.51288100  *   0.63693600  *   1.77986700  *
     5       N         -3.10235200  *   0.89453500  *   1.71711400  *
     6       C         -2.31639400  *   0.82746100  *   0.51679900  *
     7       C         -2.81990400  *   1.26466100  *  -0.71608700  *
     8       C         -1.99399600  *   1.19470900  *  -1.83676900  *
     9       N         -0.72460400  *   0.72877600  *  -1.71668800  *
    10       C         -0.23603900  *   0.33043700  *  -0.51124500  *
    11       N          1.10785300  *  -0.14840200  *  -0.39118900  *
    12       C          1.98589000  *  -0.27490200  *  -1.55378400  *
    13       C          3.33322800  *  -0.77851200  *  -1.14184300  *
    14       O          3.57697000  *  -2.00558300  *  -0.74159600  *
    15       N          4.83124500  *  -2.15453600  *  -0.42716400  *
    16       C          5.42474500  *  -0.95992200  *  -0.62262300  *
    17       C          4.50197500  *  -0.04886600  *  -1.09368800  *
    18       C          6.88990500  *  -0.71117900  *  -0.43666500  *
    19       C          7.40183600  *  -0.99668800  *   0.96756800  *
    20       C          7.23166800  *   0.43876800  *   0.49952800  *
    21       N         -1.03063400  *   0.39066100  *   0.59076100  *
    22       N         -5.26487400  *   0.93434300  *   2.85854100  *
    23       N         -6.49320100  *   0.50635800  *   2.61247400  *
    24       H         -8.41575600  *  -1.08403700  *   1.56232400  *
    25       H         -8.30412400  *   0.14498100  *   0.23883100  *
    26       H         -7.48420300  *  -1.45951900  *   0.06041300  *
    27       H         -4.96743400  *  -0.42160700  *  -0.13027800  *
    28       H         -2.60012100  *   1.05058900  *   2.62213900  *
    29       H         -3.81884800  *   1.67079200  *  -0.80684400  *
    30       H         -2.35896800  *   1.51936200  *  -2.80139600  *
    31       H          1.45480800  *  -0.41475600  *   0.55846900  *
    32       H          1.54081700  *  -0.98884500  *  -2.27901400  *
    33       H          2.09082600  *   0.71453600  *  -2.04873400  *
    34       H          4.65877700  *   0.98834200  *  -1.36223500  *
    35       H          7.60644700  *  -0.91052700  *  -1.26106800  *
    36       H          8.46023700  *  -1.32971500  *   1.01439600  *
    37       H          6.64238700  *  -1.31426900  *   1.71517600  *
    38       H          8.18842500  *   0.95198800  *   0.26459700  *
    39       H          6.37164800  *   0.96351800  *   0.97196400  *
    40       H         -7.29473400  *   0.61111400  *   3.27370000  *



          CARTESIAN COORDINATES 

    NO.       ATOM           X           Y           Z

     1         C         -7.7570     -0.6563      0.7773
     2         C         -6.5280     -0.0841      1.4025
     3         C         -5.2756     -0.0207      0.8275
     4         C         -4.5129      0.6369      1.7799
     5         N         -3.1024      0.8945      1.7171
     6         C         -2.3164      0.8275      0.5168
     7         C         -2.8199      1.2647     -0.7161
     8         C         -1.9940      1.1947     -1.8368
     9         N         -0.7246      0.7288     -1.7167
    10         C         -0.2360      0.3304     -0.5112
    11         N          1.1079     -0.1484     -0.3912
    12         C          1.9859     -0.2749     -1.5538
    13         C          3.3332     -0.7785     -1.1418
    14         O          3.5770     -2.0056     -0.7416
    15         N          4.8312     -2.1545     -0.4272
    16         C          5.4247     -0.9599     -0.6226
    17         C          4.5020     -0.0489     -1.0937
    18         C          6.8899     -0.7112     -0.4367
    19         C          7.4018     -0.9967      0.9676
    20         C          7.2317      0.4388      0.4995
    21         N         -1.0306      0.3907      0.5908
    22         N         -5.2649      0.9343      2.8585
    23         N         -6.4932      0.5064      2.6125
    24         H         -8.4158     -1.0840      1.5623
    25         H         -8.3041      0.1450      0.2388
    26         H         -7.4842     -1.4595      0.0604
    27         H         -4.9674     -0.4216     -0.1303
    28         H         -2.6001      1.0506      2.6221
    29         H         -3.8188      1.6708     -0.8068
    30         H         -2.3590      1.5194     -2.8014
    31         H          1.4548     -0.4148      0.5585
    32         H          1.5408     -0.9888     -2.2790
    33         H          2.0908      0.7145     -2.0487
    34         H          4.6588      0.9883     -1.3622
    35         H          7.6064     -0.9105     -1.2611
    36         H          8.4602     -1.3297      1.0144
    37         H          6.6424     -1.3143      1.7152
    38         H          8.1884      0.9520      0.2646
    39         H          6.3716      0.9635      0.9720
    40         H         -7.2947      0.6111      3.2737

 General Reference for PM7:
 "Optimization of Parameters for Semiempirical Methods VI: More Modifications to the 
 NDDO Approximations and Re-optimization of Parameters", J. J. P. Stewart, J. Mol. Mod., 1:32, 19 (2013)
 https://link.springer.com/article/10.1007/s00894-012-1667-x

           Empirical Formula: C15 H17 N7 O  =    40 atoms



      MOLECULAR POINT GROUP   :   C1  


      RHF CALCULATION, NO. OF DOUBLY OCCUPIED LEVELS = 59


          Geometry optimization using L-BFGS
 CYCLE:     1 TIME:   0.047 TIME LEFT:  2.00D  GRAD.:   312.372 HEAT:  159.0433
 CYCLE:     2 TIME:   0.016 TIME LEFT:  2.00D  GRAD.:   304.482 HEAT:  158.0800
 CYCLE:     3 TIME:   0.031 TIME LEFT:  2.00D  GRAD.:    70.704 HEAT:  135.8239
 CYCLE:     4 TIME:   0.031 TIME LEFT:  2.00D  GRAD.:   304.494 HEAT:  158.0796
 CYCLE:     5 TIME:   0.031 TIME LEFT:  2.00D  GRAD.:    70.699 HEAT:  135.8238
 CYCLE:     6 TIME:   0.023 TIME LEFT:  2.00D  GRAD.:    60.311 HEAT:  133.4040
 CYCLE:     7 TIME:   0.023 TIME LEFT:  2.00D  GRAD.:    61.621 HEAT:  129.3416
 CYCLE:     8 TIME:   0.031 TIME LEFT:  2.00D  GRAD.:   102.724 HEAT:  127.7346
 CYCLE:     9 TIME:   0.023 TIME LEFT:  2.00D  GRAD.:    36.736 HEAT:  125.5695
 CYCLE:    10 TIME:   0.023 TIME LEFT:  2.00D  GRAD.:    21.904 HEAT:  124.8526
 CYCLE:    11 TIME:   0.023 TIME LEFT:  2.00D  GRAD.:    22.337 HEAT:  124.3891
 CYCLE:    12 TIME:   0.023 TIME LEFT:  2.00D  GRAD.:    38.544 HEAT:  124.0254
 CYCLE:    13 TIME:   0.023 TIME LEFT:  2.00D  GRAD.:    18.695 HEAT:  123.6160
 CYCLE:    14 TIME:   0.023 TIME LEFT:  2.00D  GRAD.:    16.833 HEAT:  123.3144
 CYCLE:    15 TIME:   0.023 TIME LEFT:  2.00D  GRAD.:    20.367 HEAT:  123.0052
 CYCLE:    16 TIME:   0.023 TIME LEFT:  2.00D  GRAD.:    40.630 HEAT:  122.6941
 CYCLE:    17 TIME:   0.023 TIME LEFT:  2.00D  GRAD.:    16.028 HEAT:  122.3095
 CYCLE:    18 TIME:   0.023 TIME LEFT:  2.00D  GRAD.:    10.489 HEAT:  122.1523
 CYCLE:    19 TIME:   0.023 TIME LEFT:  2.00D  GRAD.:    10.593 HEAT:  122.0317
 CYCLE:    20 TIME:   0.023 TIME LEFT:  2.00D  GRAD.:    21.067 HEAT:  121.9561
 CYCLE:    21 TIME:   0.023 TIME LEFT:  2.00D  GRAD.:     9.806 HEAT:  121.8496
 CYCLE:    22 TIME:   0.023 TIME LEFT:  2.00D  GRAD.:     7.173 HEAT:  121.7749
 CYCLE:    23 TIME:   0.023 TIME LEFT:  2.00D  GRAD.:     7.560 HEAT:  121.7238
 CYCLE:    24 TIME:   0.023 TIME LEFT:  2.00D  GRAD.:    11.000 HEAT:  121.6527
 CYCLE:    25 TIME:   0.023 TIME LEFT:  2.00D  GRAD.:    10.661 HEAT:  121.6222
 CYCLE:    26 TIME:   0.023 TIME LEFT:  2.00D  GRAD.:     4.475 HEAT:  121.5889
 CYCLE:    27 TIME:   0.023 TIME LEFT:  2.00D  GRAD.:     4.156 HEAT:  121.5721
 CYCLE:    28 TIME:   0.023 TIME LEFT:  2.00D  GRAD.:     5.534 HEAT:  121.5466
 CYCLE:    29 TIME:   0.023 TIME LEFT:  2.00D  GRAD.:    10.928 HEAT:  121.5331
 CYCLE:    30 TIME:   0.023 TIME LEFT:  2.00D  GRAD.:     4.002 HEAT:  121.5072
 CYCLE:    31 TIME:   0.023 TIME LEFT:  2.00D  GRAD.:     3.274 HEAT:  121.4962
 CYCLE:    32 TIME:   0.023 TIME LEFT:  2.00D  GRAD.:     4.023 HEAT:  121.4834
 CYCLE:    33 TIME:   0.023 TIME LEFT:  2.00D  GRAD.:     4.823 HEAT:  121.4641
 CYCLE:    34 TIME:   0.023 TIME LEFT:  2.00D  GRAD.:    11.942 HEAT:  121.4659
 CYCLE:    35 TIME:   0.023 TIME LEFT:  2.00D  GRAD.:     3.581 HEAT:  121.4358
 CYCLE:    36 TIME:   0.023 TIME LEFT:  2.00D  GRAD.:     3.257 HEAT:  121.4259
 CYCLE:    37 TIME:   0.023 TIME LEFT:  2.00D  GRAD.:     4.818 HEAT:  121.4052
 CYCLE:    38 TIME:   0.023 TIME LEFT:  2.00D  GRAD.:     6.506 HEAT:  121.3775
 CYCLE:    39 TIME:   0.031 TIME LEFT:  2.00D  GRAD.:    12.467 HEAT:  121.3784
 CYCLE:    40 TIME:   0.023 TIME LEFT:  2.00D  GRAD.:     3.041 HEAT:  121.3482
 CYCLE:    41 TIME:   0.023 TIME LEFT:  2.00D  GRAD.:     2.667 HEAT:  121.3406
 CYCLE:    42 TIME:   0.023 TIME LEFT:  2.00D  GRAD.:     3.079 HEAT:  121.3255
 CYCLE:    43 TIME:   0.023 TIME LEFT:  2.00D  GRAD.:     4.174 HEAT:  121.3125
 CYCLE:    44 TIME:   0.023 TIME LEFT:  2.00D  GRAD.:     5.373 HEAT:  121.3060
 CYCLE:    45 TIME:   0.023 TIME LEFT:  2.00D  GRAD.:     2.318 HEAT:  121.2972
 CYCLE:    46 TIME:   0.023 TIME LEFT:  2.00D  GRAD.:     2.323 HEAT:  121.2917
 CYCLE:    47 TIME:   0.023 TIME LEFT:  2.00D  GRAD.:     3.091 HEAT:  121.2839
 CYCLE:    48 TIME:   0.023 TIME LEFT:  2.00D  GRAD.:     7.570 HEAT:  121.2771
 CYCLE:    49 TIME:   0.023 TIME LEFT:  2.00D  GRAD.:     3.719 HEAT:  121.2633
 CYCLE:    50 TIME:   0.023 TIME LEFT:  2.00D  GRAD.:     2.583 HEAT:  121.2532
 CYCLE:    51 TIME:   0.023 TIME LEFT:  2.00D  GRAD.:     3.344 HEAT:  121.2449
 CYCLE:    52 TIME:   0.016 TIME LEFT:  2.00D  GRAD.:     5.330 HEAT:  121.2304
 CYCLE:    53 TIME:   0.023 TIME LEFT:  2.00D  GRAD.:     3.896 HEAT:  121.2182
 CYCLE:    54 TIME:   0.023 TIME LEFT:  2.00D  GRAD.:     2.527 HEAT:  121.2098
 CYCLE:    55 TIME:   0.023 TIME LEFT:  2.00D  GRAD.:     2.577 HEAT:  121.2029
 CYCLE:    56 TIME:   0.023 TIME LEFT:  2.00D  GRAD.:     2.857 HEAT:  121.1977
 CYCLE:    57 TIME:   0.023 TIME LEFT:  2.00D  GRAD.:     2.894 HEAT:  121.1882
 CYCLE:    58 TIME:   0.031 TIME LEFT:  2.00D  GRAD.:     5.613 HEAT:  121.1816
 CYCLE:    59 TIME:   0.016 TIME LEFT:  2.00D  GRAD.:     2.986 HEAT:  121.1716
 CYCLE:    60 TIME:   0.023 TIME LEFT:  2.00D  GRAD.:     2.436 HEAT:  121.1659
 CYCLE:    61 TIME:   0.023 TIME LEFT:  2.00D  GRAD.:     2.576 HEAT:  121.1566
 CYCLE:    62 TIME:   0.023 TIME LEFT:  2.00D  GRAD.:     6.173 HEAT:  121.1542
 CYCLE:    63 TIME:   0.023 TIME LEFT:  2.00D  GRAD.:     2.551 HEAT:  121.1463
 CYCLE:    64 TIME:   0.023 TIME LEFT:  2.00D  GRAD.:     1.776 HEAT:  121.1421
 CYCLE:    65 TIME:   0.023 TIME LEFT:  2.00D  GRAD.:     2.345 HEAT:  121.1361
 CYCLE:    66 TIME:   0.023 TIME LEFT:  2.00D  GRAD.:     2.908 HEAT:  121.1290
 CYCLE:    67 TIME:   0.023 TIME LEFT:  2.00D  GRAD.:     5.234 HEAT:  121.1253
 CYCLE:    68 TIME:   0.023 TIME LEFT:  2.00D  GRAD.:     2.062 HEAT:  121.1170
 CYCLE:    69 TIME:   0.023 TIME LEFT:  2.00D  GRAD.:     2.103 HEAT:  121.1128
 CYCLE:    70 TIME:   0.031 TIME LEFT:  2.00D  GRAD.:     2.587 HEAT:  121.1063
 CYCLE:    71 TIME:   0.023 TIME LEFT:  2.00D  GRAD.:     6.872 HEAT:  121.1050
 CYCLE:    72 TIME:   0.023 TIME LEFT:  2.00D  GRAD.:     2.054 HEAT:  121.0962
 CYCLE:    73 TIME:   0.023 TIME LEFT:  2.00D  GRAD.:     1.823 HEAT:  121.0928
 CYCLE:    74 TIME:   0.023 TIME LEFT:  2.00D  GRAD.:     2.790 HEAT:  121.0851
 CYCLE:    75 TIME:   0.023 TIME LEFT:  2.00D  GRAD.:     4.222 HEAT:  121.0762
 CYCLE:    76 TIME:   0.031 TIME LEFT:  2.00D  GRAD.:     4.304 HEAT:  121.0654
 CYCLE:    77 TIME:   0.023 TIME LEFT:  2.00D  GRAD.:     2.626 HEAT:  121.0576
 CYCLE:    78 TIME:   0.023 TIME LEFT:  2.00D  GRAD.:     2.927 HEAT:  121.0515
 CYCLE:    79 TIME:   0.023 TIME LEFT:  2.00D  GRAD.:     3.599 HEAT:  121.0423
 CYCLE:    80 TIME:   0.023 TIME LEFT:  2.00D  GRAD.:     7.061 HEAT:  121.0366
 CYCLE:    81 TIME:   0.023 TIME LEFT:  2.00D  GRAD.:     2.911 HEAT:  121.0253
 CYCLE:    82 TIME:   0.023 TIME LEFT:  2.00D  GRAD.:     2.480 HEAT:  121.0193
 CYCLE:    83 TIME:   0.023 TIME LEFT:  2.00D  GRAD.:     3.079 HEAT:  121.0120
 CYCLE:    84 TIME:   0.023 TIME LEFT:  2.00D  GRAD.:     3.704 HEAT:  120.9981
 CYCLE:    85 TIME:   0.023 TIME LEFT:  2.00D  GRAD.:     8.680 HEAT:  120.9941
 CYCLE:    86 TIME:   0.023 TIME LEFT:  2.00D  GRAD.:     6.447 HEAT:  120.9812
 CYCLE:    87 TIME:   0.023 TIME LEFT:  2.00D  GRAD.:     3.176 HEAT:  120.9673
 CYCLE:    88 TIME:   0.031 TIME LEFT:  2.00D  GRAD.:     3.655 HEAT:  120.9572
 CYCLE:    89 TIME:   0.016 TIME LEFT:  2.00D  GRAD.:     5.033 HEAT:  120.9482
 CYCLE:    90 TIME:   0.023 TIME LEFT:  2.00D  GRAD.:     5.018 HEAT:  120.9375
 CYCLE:    91 TIME:   0.023 TIME LEFT:  2.00D  GRAD.:     3.463 HEAT:  120.9194
 CYCLE:    92 TIME:   0.031 TIME LEFT:  2.00D  GRAD.:     3.956 HEAT:  120.9139
 CYCLE:    93 TIME:   0.023 TIME LEFT:  2.00D  GRAD.:     8.370 HEAT:  120.9068
 CYCLE:    94 TIME:   0.016 TIME LEFT:  2.00D  GRAD.:     3.687 HEAT:  120.8921
 CYCLE:    95 TIME:   0.023 TIME LEFT:  2.00D  GRAD.:     2.188 HEAT:  120.8848
 CYCLE:    96 TIME:   0.023 TIME LEFT:  2.00D  GRAD.:     2.402 HEAT:  120.8787
 CYCLE:    97 TIME:   0.031 TIME LEFT:  2.00D  GRAD.:     4.833 HEAT:  120.8682
 CYCLE:    98 TIME:   0.023 TIME LEFT:  2.00D  GRAD.:    10.159 HEAT:  120.8714
 CYCLE:    99 TIME:   0.023 TIME LEFT:  2.00D  GRAD.:     2.798 HEAT:  120.8524
 CYCLE:   100 TIME:   0.023 TIME LEFT:  2.00D  GRAD.:     2.243 HEAT:  120.8466
 CYCLE:   101 TIME:   0.023 TIME LEFT:  2.00D  GRAD.:     3.211 HEAT:  120.8370
 CYCLE:   102 TIME:   0.023 TIME LEFT:  2.00D  GRAD.:     4.183 HEAT:  120.8276
 CYCLE:   103 TIME:   0.023 TIME LEFT:  2.00D  GRAD.:     3.772 HEAT:  120.8172
 CYCLE:   104 TIME:   0.023 TIME LEFT:  2.00D  GRAD.:     3.130 HEAT:  120.8113
 CYCLE:   105 TIME:   0.023 TIME LEFT:  2.00D  GRAD.:     3.442 HEAT:  120.8047
 CYCLE:   106 TIME:   0.023 TIME LEFT:  2.00D  GRAD.:     3.965 HEAT:  120.7993
 CYCLE:   107 TIME:   0.023 TIME LEFT:  2.00D  GRAD.:     8.130 HEAT:  120.7934
 CYCLE:   108 TIME:   0.023 TIME LEFT:  2.00D  GRAD.:     3.726 HEAT:  120.7805
 CYCLE:   109 TIME:   0.023 TIME LEFT:  2.00D  GRAD.:     3.128 HEAT:  120.7768
 CYCLE:   110 TIME:   0.023 TIME LEFT:  2.00D  GRAD.:     3.119 HEAT:  120.7697
 CYCLE:   111 TIME:   0.031 TIME LEFT:  2.00D  GRAD.:     2.921 HEAT:  120.7609
 CYCLE:   112 TIME:   0.023 TIME LEFT:  2.00D  GRAD.:     3.237 HEAT:  120.7524
 CYCLE:   113 TIME:   0.023 TIME LEFT:  2.00D  GRAD.:     4.136 HEAT:  120.7412
 CYCLE:   114 TIME:   0.023 TIME LEFT:  2.00D  GRAD.:     5.434 HEAT:  120.7323
 CYCLE:   115 TIME:   0.023 TIME LEFT:  2.00D  GRAD.:     3.453 HEAT:  120.7216
 CYCLE:   116 TIME:   0.023 TIME LEFT:  2.00D  GRAD.:     3.593 HEAT:  120.7104
 CYCLE:   117 TIME:   0.023 TIME LEFT:  2.00D  GRAD.:     3.721 HEAT:  120.6978
 CYCLE:   118 TIME:   0.031 TIME LEFT:  2.00D  GRAD.:     9.444 HEAT:  120.6968
 CYCLE:   119 TIME:   0.023 TIME LEFT:  2.00D  GRAD.:     2.880 HEAT:  120.6803
 CYCLE:   120 TIME:   0.023 TIME LEFT:  2.00D  GRAD.:     2.252 HEAT:  120.6753
 CYCLE:   121 TIME:   0.023 TIME LEFT:  2.00D  GRAD.:     4.150 HEAT:  120.6665
 CYCLE:   122 TIME:   0.023 TIME LEFT:  2.00D  GRAD.:     4.034 HEAT:  120.6564
 CYCLE:   123 TIME:   0.023 TIME LEFT:  2.00D  GRAD.:     7.110 HEAT:  120.6468
 CYCLE:   124 TIME:   0.031 TIME LEFT:  2.00D  GRAD.:     3.762 HEAT:  120.6372
 CYCLE:   125 TIME:   0.016 TIME LEFT:  2.00D  GRAD.:     2.779 HEAT:  120.6315
 CYCLE:   126 TIME:   0.031 TIME LEFT:  2.00D  GRAD.:     3.631 HEAT:  120.6291
 CYCLE:   127 TIME:   0.023 TIME LEFT:  2.00D  GRAD.:     2.319 HEAT:  120.6203
 CYCLE:   128 TIME:   0.023 TIME LEFT:  2.00D  GRAD.:     3.114 HEAT:  120.6172
 CYCLE:   129 TIME:   0.023 TIME LEFT:  2.00D  GRAD.:     3.812 HEAT:  120.6123
 CYCLE:   130 TIME:   0.023 TIME LEFT:  2.00D  GRAD.:     1.613 HEAT:  120.6085
 CYCLE:   131 TIME:   0.023 TIME LEFT:  2.00D  GRAD.:     1.542 HEAT:  120.6062
 CYCLE:   132 TIME:   0.031 TIME LEFT:  2.00D  GRAD.:     3.131 HEAT:  120.5984
 CYCLE:   133 TIME:   0.023 TIME LEFT:  2.00D  GRAD.:     4.295 HEAT:  120.5922
 CYCLE:   134 TIME:   0.023 TIME LEFT:  2.00D  GRAD.:     3.176 HEAT:  120.5837
 CYCLE:   135 TIME:   0.023 TIME LEFT:  2.00D  GRAD.:     3.250 HEAT:  120.5734
 CYCLE:   136 TIME:   0.023 TIME LEFT:  2.00D  GRAD.:     5.341 HEAT:  120.5704
 CYCLE:   137 TIME:   0.023 TIME LEFT:  2.00D  GRAD.:     2.315 HEAT:  120.5630
 CYCLE:   138 TIME:   0.023 TIME LEFT:  2.00D  GRAD.:     1.455 HEAT:  120.5600
 CYCLE:   139 TIME:   0.023 TIME LEFT:  2.00D  GRAD.:     1.531 HEAT:  120.5571
 CYCLE:   140 TIME:   0.031 TIME LEFT:  2.00D  GRAD.:     2.679 HEAT:  120.5533
 CYCLE:   141 TIME:   0.023 TIME LEFT:  2.00D  GRAD.:     3.220 HEAT:  120.5507
 CYCLE:   142 TIME:   0.016 TIME LEFT:  2.00D  GRAD.:     1.834 HEAT:  120.5476
 CYCLE:   143 TIME:   0.023 TIME LEFT:  2.00D  GRAD.:     1.376 HEAT:  120.5440
 CYCLE:   144 TIME:   0.031 TIME LEFT:  2.00D  GRAD.:     1.783 HEAT:  120.5422
 CYCLE:   145 TIME:   0.023 TIME LEFT:  2.00D  GRAD.:     3.403 HEAT:  120.5402
 CYCLE:   146 TIME:   0.023 TIME LEFT:  2.00D  GRAD.:     1.878 HEAT:  120.5361
 CYCLE:   147 TIME:   0.023 TIME LEFT:  2.00D  GRAD.:     1.853 HEAT:  120.5320
 CYCLE:   148 TIME:   0.023 TIME LEFT:  2.00D  GRAD.:     1.901 HEAT:  120.5281
 CYCLE:   149 TIME:   0.031 TIME LEFT:  2.00D  GRAD.:     2.760 HEAT:  120.5236
 CYCLE:   150 TIME:   0.023 TIME LEFT:  2.00D  GRAD.:     6.060 HEAT:  120.5246
 CYCLE:   151 TIME:   0.023 TIME LEFT:  2.00D  GRAD.:     1.752 HEAT:  120.5176
 CYCLE:   152 TIME:   0.023 TIME LEFT:  2.00D  GRAD.:     1.214 HEAT:  120.5166
 CYCLE:   153 TIME:   0.023 TIME LEFT:  2.00D  GRAD.:     1.697 HEAT:  120.5124
 CYCLE:   154 TIME:   0.031 TIME LEFT:  2.00D  GRAD.:     2.179 HEAT:  120.5052
 CYCLE:   155 TIME:   0.023 TIME LEFT:  2.00D  GRAD.:    10.415 HEAT:  120.5099
 CYCLE:   156 TIME:   0.023 TIME LEFT:  2.00D  GRAD.:     4.956 HEAT:  120.5010
 CYCLE:   157 TIME:   0.023 TIME LEFT:  2.00D  GRAD.:     1.377 HEAT:  120.4951
 CYCLE:   158 TIME:   0.031 TIME LEFT:  2.00D  GRAD.:     3.319 HEAT:  120.4901
 CYCLE:   159 TIME:   0.023 TIME LEFT:  2.00D  GRAD.:     2.466 HEAT:  120.4825
 CYCLE:   160 TIME:   0.023 TIME LEFT:  2.00D  GRAD.:     3.027 HEAT:  120.4814
 CYCLE:   161 TIME:   0.023 TIME LEFT:  2.00D  GRAD.:    12.275 HEAT:  120.4932
 CYCLE:   162 TIME:   0.023 TIME LEFT:  2.00D  GRAD.:     2.853 HEAT:  120.4678
 CYCLE:   163 TIME:   0.023 TIME LEFT:  2.00D  GRAD.:     1.630 HEAT:  120.4640
 CYCLE:   164 TIME:   0.031 TIME LEFT:  2.00D  GRAD.:     4.829 HEAT:  120.4615
 CYCLE:   165 TIME:   0.023 TIME LEFT:  2.00D  GRAD.:     2.511 HEAT:  120.4542
 CYCLE:   166 TIME:   0.023 TIME LEFT:  2.00D  GRAD.:     2.917 HEAT:  120.4580
 CYCLE:   167 TIME:   0.023 TIME LEFT:  2.00D  GRAD.:     1.221 HEAT:  120.4487
 CYCLE:   168 TIME:   0.031 TIME LEFT:  2.00D  GRAD.:     3.173 HEAT:  120.4419
 CYCLE:   169 TIME:   0.023 TIME LEFT:  2.00D  GRAD.:     7.145 HEAT:  120.4416
 CYCLE:   170 TIME:   0.023 TIME LEFT:  2.00D  GRAD.:     2.654 HEAT:  120.4327
 CYCLE:   171 TIME:   0.023 TIME LEFT:  2.00D  GRAD.:     2.690 HEAT:  120.4259
 CYCLE:   172 TIME:   0.023 TIME LEFT:  2.00D  GRAD.:     2.012 HEAT:  120.4199
 CYCLE:   173 TIME:   0.031 TIME LEFT:  2.00D  GRAD.:     3.440 HEAT:  120.4106
 CYCLE:   174 TIME:   0.016 TIME LEFT:  2.00D  GRAD.:     4.220 HEAT:  120.4072
 CYCLE:   175 TIME:   0.023 TIME LEFT:  2.00D  GRAD.:     2.689 HEAT:  120.4021
 CYCLE:   176 TIME:   0.031 TIME LEFT:  2.00D  GRAD.:     2.483 HEAT:  120.4018
 CYCLE:   177 TIME:   0.023 TIME LEFT:  2.00D  GRAD.:     4.610 HEAT:  120.3966
 CYCLE:   178 TIME:   0.023 TIME LEFT:  2.00D  GRAD.:     5.178 HEAT:  120.3949
 CYCLE:   179 TIME:   0.023 TIME LEFT:  2.00D  GRAD.:     1.484 HEAT:  120.3894
 CYCLE:   180 TIME:   0.031 TIME LEFT:  2.00D  GRAD.:     2.549 HEAT:  120.3910
 CYCLE:   181 TIME:   0.023 TIME LEFT:  2.00D  GRAD.:     1.238 HEAT:  120.3850
 CYCLE:   182 TIME:   0.031 TIME LEFT:  2.00D  GRAD.:     1.854 HEAT:  120.3800
 CYCLE:   183 TIME:   0.023 TIME LEFT:  2.00D  GRAD.:     4.336 HEAT:  120.3775
 CYCLE:   184 TIME:   0.023 TIME LEFT:  2.00D  GRAD.:     2.168 HEAT:  120.3723
 CYCLE:   185 TIME:   0.023 TIME LEFT:  2.00D  GRAD.:     2.668 HEAT:  120.3651
 CYCLE:   186 TIME:   0.023 TIME LEFT:  2.00D  GRAD.:     2.117 HEAT:  120.3613
 CYCLE:   187 TIME:   0.031 TIME LEFT:  2.00D  GRAD.:     2.942 HEAT:  120.3580
 CYCLE:   188 TIME:   0.023 TIME LEFT:  2.00D  GRAD.:    18.401 HEAT:  120.4369
 CYCLE:   189 TIME:   0.023 TIME LEFT:  2.00D  GRAD.:     7.731 HEAT:  120.3718
 CYCLE:   190 TIME:   0.023 TIME LEFT:  2.00D  GRAD.:     4.441 HEAT:  120.3579
 CYCLE:   191 TIME:   0.031 TIME LEFT:  2.00D  GRAD.:     6.937 HEAT:  120.3575
 CYCLE:   192 TIME:   0.023 TIME LEFT:  2.00D  GRAD.:     2.143 HEAT:  120.3439
 CYCLE:   193 TIME:   0.023 TIME LEFT:  2.00D  GRAD.:     1.568 HEAT:  120.3433
 CYCLE:   194 TIME:   0.023 TIME LEFT:  2.00D  GRAD.:     1.018 HEAT:  120.3408
 CYCLE:   195 TIME:   0.023 TIME LEFT:  2.00D  GRAD.:     3.123 HEAT:  120.3394
 CYCLE:   196 TIME:   0.023 TIME LEFT:  2.00D  GRAD.:     1.562 HEAT:  120.3370
 CYCLE:   197 TIME:   0.031 TIME LEFT:  2.00D  GRAD.:     1.049 HEAT:  120.3350
 CYCLE:   198 TIME:   0.023 TIME LEFT:  2.00D  GRAD.:     1.383 HEAT:  120.3334
 CYCLE:   199 TIME:   0.023 TIME LEFT:  2.00D  GRAD.:     1.904 HEAT:  120.3308
 CYCLE:   200 TIME:   0.023 TIME LEFT:  2.00D  GRAD.:     1.628 HEAT:  120.3268
 CYCLE:   201 TIME:   0.023 TIME LEFT:  2.00D  GRAD.:     2.558 HEAT:  120.3246
 CYCLE:   202 TIME:   0.023 TIME LEFT:  2.00D  GRAD.:     1.759 HEAT:  120.3219
 CYCLE:   203 TIME:   0.023 TIME LEFT:  2.00D  GRAD.:     1.508 HEAT:  120.3175
 CYCLE:   204 TIME:   0.023 TIME LEFT:  2.00D  GRAD.:     2.478 HEAT:  120.3146
 CYCLE:   205 TIME:   0.031 TIME LEFT:  2.00D  GRAD.:     1.973 HEAT:  120.3112
 CYCLE:   206 TIME:   0.023 TIME LEFT:  2.00D  GRAD.:     2.062 HEAT:  120.3076
 CYCLE:   207 TIME:   0.023 TIME LEFT:  2.00D  GRAD.:     2.725 HEAT:  120.3042
 CYCLE:   208 TIME:   0.023 TIME LEFT:  2.00D  GRAD.:     2.168 HEAT:  120.3010
 CYCLE:   209 TIME:   0.031 TIME LEFT:  2.00D  GRAD.:     2.125 HEAT:  120.2978
 CYCLE:   210 TIME:   0.023 TIME LEFT:  2.00D  GRAD.:     2.747 HEAT:  120.2944
 CYCLE:   211 TIME:   0.023 TIME LEFT:  2.00D  GRAD.:     2.482 HEAT:  120.2914
 CYCLE:   212 TIME:   0.023 TIME LEFT:  2.00D  GRAD.:     1.600 HEAT:  120.2892
 CYCLE:   213 TIME:   0.023 TIME LEFT:  2.00D  GRAD.:     1.469 HEAT:  120.2862
 CYCLE:   214 TIME:   0.023 TIME LEFT:  2.00D  GRAD.:     2.006 HEAT:  120.2840
 CYCLE:   215 TIME:   0.023 TIME LEFT:  2.00D  GRAD.:     2.224 HEAT:  120.2808
 CYCLE:   216 TIME:   0.023 TIME LEFT:  2.00D  GRAD.:     1.940 HEAT:  120.2776
 CYCLE:   217 TIME:   0.023 TIME LEFT:  2.00D  GRAD.:     1.983 HEAT:  120.2740
 CYCLE:   218 TIME:   0.031 TIME LEFT:  2.00D  GRAD.:     2.819 HEAT:  120.2696
 CYCLE:   219 TIME:   0.023 TIME LEFT:  2.00D  GRAD.:     2.908 HEAT:  120.2661
 CYCLE:   220 TIME:   0.023 TIME LEFT:  2.00D  GRAD.:     2.819 HEAT:  120.2631
 CYCLE:   221 TIME:   0.023 TIME LEFT:  2.00D  GRAD.:     3.110 HEAT:  120.2604
 CYCLE:   222 TIME:   0.031 TIME LEFT:  2.00D  GRAD.:     2.427 HEAT:  120.2574
 CYCLE:   223 TIME:   0.023 TIME LEFT:  2.00D  GRAD.:     5.821 HEAT:  120.2569
 CYCLE:   224 TIME:   0.023 TIME LEFT:  2.00D  GRAD.:     2.555 HEAT:  120.2472
 CYCLE:   225 TIME:   0.023 TIME LEFT:  2.00D  GRAD.:     2.246 HEAT:  120.2494
 CYCLE:   226 TIME:   0.031 TIME LEFT:  2.00D  GRAD.:    10.666 HEAT:  120.2671
 CYCLE:   227 TIME:   0.023 TIME LEFT:  2.00D  GRAD.:    11.870 HEAT:  120.2729
 CYCLE:   228 TIME:   0.023 TIME LEFT:  2.00D  GRAD.:     0.923 HEAT:  120.2411

 -------------------------------------------------------------------------------
 PM7 XYZ

 Lipophilicity_1795 - geometry optimisation


     HERBERTS TEST WAS SATISFIED IN BFGS                      
     SCF FIELD WAS ACHIEVED                                   


                              PM7 CALCULATION
                                                       MOPAC v23.0.3 Linux
                                                       Fri Jul 25 18:14:03 2025




          FINAL HEAT OF FORMATION =        120.24108 KCAL/MOL =     503.08866 KJ/MOL


          COSMO AREA              =        348.43 SQUARE ANGSTROMS
          COSMO VOLUME            =        362.74 CUBIC ANGSTROMS

          GRADIENT NORM           =          0.92335          =       0.14599 PER ATOM
          IONIZATION POTENTIAL    =          8.747994 EV
          HOMO LUMO ENERGIES (EV) =         -8.748 -0.195
          NO. OF FILLED LEVELS    =         59
          MOLECULAR WEIGHT        =        311.3456         POINT GROUP:  C1  

          MOLECULAR DIMENSIONS (Angstroms)

            Atom       Atom       Distance
            H    36    H    24    17.56592
            H    40    H    30     5.87341
            H    38    N    15     2.88312


          SCF CALCULATIONS        =        229

          WALL-CLOCK TIME         =      5.609 SECONDS
          COMPUTATION TIME        =          1 MINUTE AND 51.897 SECONDS




   ATOM   CHEMICAL          X               Y               Z
  NUMBER   SYMBOL      (ANGSTROMS)     (ANGSTROMS)     (ANGSTROMS)

     1       C         -8.11278037  *   0.04419639  *   0.91211515  *
     2       C         -6.71496376  *   0.15992830  *   1.35739294  *
     3       C         -5.52945100  *  -0.25791681  *   0.74570375  *
     4       C         -4.48609969  *   0.14496419  *   1.63763729  *
     5       N         -3.11139182  *  -0.08170467  *   1.55471283  *
     6       C         -2.38441416  *   0.17134330  *   0.40406025  *
     7       C         -2.92902607  *   0.53614647  *  -0.84843165  *
     8       C         -2.03584797  *   0.67720731  *  -1.91035267  *
     9       N         -0.71012128  *   0.49234990  *  -1.78371411  *
    10       C         -0.25482094  *   0.16997357  *  -0.52571785  *
    11       N          1.09683174  *   0.06379951  *  -0.31771022  *
    12       C          1.99871214  *   0.02864363  *  -1.47968899  *
    13       C          3.36642733  *  -0.31839873  *  -1.03898522  *
    14       O          3.46672571  *  -1.41301370  *  -0.19552976  *
    15       N          4.78971362  *  -1.57958201  *   0.13574729  *
    16       C          5.50448068  *  -0.64285133  *  -0.48354986  *
    17       C          4.61178056  *   0.19997062  *  -1.26279406  *
    18       C          6.95589280  *  -0.48035278  *  -0.38729752  *
    19       C          7.72235462  *  -1.09166723  *   0.77158307  *
    20       C          7.51928169  *   0.39802647  *   0.71857238  *
    21       N         -1.04289018  *  -0.00603205  *   0.57832546  *
    22       N         -5.01560362  *   0.76768245  *   2.73864463  *
    23       N         -6.36092458  *   0.76142080  *   2.55584006  *
    24       H         -8.78420238  *  -0.31961424  *   1.70492102  *
    25       H         -8.51136715  *   1.00900314  *   0.55591412  *
    26       H         -8.20604172  *  -0.66357918  *   0.07016466  *
    27       H         -5.41737509  *  -0.79118980  *  -0.17063567  *
    28       H         -2.59404565  *  -0.13872125  *   2.43827335  *
    29       H         -3.98614663  *   0.71368356  *  -0.97875637  *
    30       H         -2.37827001  *   0.94888174  *  -2.91815272  *
    31       H          1.43006095  *  -0.33224883  *   0.55394873  *
    32       H          1.62849140  *  -0.69569428  *  -2.25511493  *
    33       H          1.97751438  *   1.03528208  *  -1.98042985  *
    34       H          4.91031344  *   1.03766928  *  -1.85308467  *
    35       H          7.44326890  *  -0.45430503  *  -1.37315815  *
    36       H          8.70554592  *  -1.51833735  *   0.59430667  *
    37       H          7.18390823  *  -1.68578226  *   1.51088938  *
    38       H          8.35402406  *   1.05821958  *   0.50026043  *
    39       H          6.83816844  *   0.87338350  *   1.42188245  *
    40       H         -6.93753239  *   1.17923130  *   3.25561670  *

                             CARTESIAN COORDINATES

   1    C       -8.112780372     0.044196385     0.912115145
   2    C       -6.714963761     0.159928304     1.357392942
   3    C       -5.529450996    -0.257916812     0.745703745
   4    C       -4.486099692     0.144964195     1.637637288
   5    N       -3.111391823    -0.081704670     1.554712831
   6    C       -2.384414158     0.171343300     0.404060253
   7    C       -2.929026068     0.536146466    -0.848431654
   8    C       -2.035847966     0.677207314    -1.910352674
   9    N       -0.710121276     0.492349904    -1.783714113
  10    C       -0.254820941     0.169973572    -0.525717853
  11    N        1.096831741     0.063799514    -0.317710220
  12    C        1.998712145     0.028643629    -1.479688990
  13    C        3.366427334    -0.318398731    -1.038985216
  14    O        3.466725707    -1.413013704    -0.195529756
  15    N        4.789713619    -1.579582015     0.135747292
  16    C        5.504480675    -0.642851328    -0.483549857
  17    C        4.611780558     0.199970617    -1.262794058
  18    C        6.955892799    -0.480352778    -0.387297521
  19    C        7.722354615    -1.091667227     0.771583070
  20    C        7.519281691     0.398026475     0.718572382
  21    N       -1.042890178    -0.006032052     0.578325461
  22    N       -5.015603623     0.767682446     2.738644633
  23    N       -6.360924578     0.761420796     2.555840059
  24    H       -8.784202377    -0.319614240     1.704921022
  25    H       -8.511367151     1.009003137     0.555914115
  26    H       -8.206041716    -0.663579183     0.070164656
  27    H       -5.417375094    -0.791189799    -0.170635671
  28    H       -2.594045647    -0.138721253     2.438273351
  29    H       -3.986146625     0.713683558    -0.978756373
  30    H       -2.378270006     0.948881739    -2.918152717
  31    H        1.430060948    -0.332248831     0.553948732
  32    H        1.628491398    -0.695694276    -2.255114927
  33    H        1.977514380     1.035282084    -1.980429849
  34    H        4.910313440     1.037669278    -1.853084673
  35    H        7.443268896    -0.454305028    -1.373158155
  36    H        8.705545920    -1.518337354     0.594306668
  37    H        7.183908233    -1.685782265     1.510889380
  38    H        8.354024062     1.058219585     0.500260429
  39    H        6.838168438     0.873383496     1.421882450
  40    H       -6.937532388     1.179231301     3.255616697


           Empirical Formula: C15 H17 N7 O  =    40 atoms



      MOLECULAR POINT GROUP   :   C1  


                  EIGENVALUES  
 -40.30156 -38.10121 -37.23357 -35.80815 -35.73347 -33.64217 -30.92842 -30.56086
 -29.44719 -28.14927 -27.89087 -26.67878 -25.38381 -25.09067 -23.24900 -23.01252
 -22.54498 -21.25323 -20.94497 -20.72870 -20.39886 -19.21264 -18.68123 -18.33297
 -17.77639 -17.41332 -16.83056 -16.69170 -16.34248 -16.16682 -16.04555 -15.88522
 -15.73309 -15.35003 -15.16858 -15.11180 -14.88715 -14.49246 -14.37692 -14.13261
 -13.97381 -13.87733 -13.63402 -13.04995 -12.77948 -12.64391 -12.38003 -12.12080
 -11.88679 -11.72590 -11.56228 -11.47893 -10.63380 -10.60548 -10.36201 -10.14621
  -9.95583  -9.14361  -8.74799  -0.19534   0.00451   0.10596   0.43452   0.71521
   0.88943   1.00065   1.28224   1.71032   2.06140   2.20969   2.46070   2.70577
   3.08183   3.13918   3.19246   3.49357   3.61784   3.73123   3.83714   3.85965
   3.94288   4.05537   4.17003   4.19127   4.53670   4.69770   4.75246   4.86792
   4.91690   4.97727   5.09974   5.13569   5.15656   5.26866   5.32914   5.41947
   5.71533   5.71842   5.83785   5.84233   5.90490   5.91709   6.11298   6.12594
   6.16567   6.31895   6.35823   6.50499   6.54938


              NET ATOMIC CHARGES AND DIPOLE CONTRIBUTIONS

  ATOM NO.   TYPE          CHARGE      No. of ELECS.   s-Pop       p-Pop       
    1          C          -0.450334        4.4503     1.04480     3.40553
    2          C           0.122012        3.8780     1.06905     2.80894
    3          C          -0.337397        4.3374     1.07635     3.26104
    4          C           0.241914        3.7581     1.04641     2.71168
    5          N          -0.447676        5.4477     1.52473     3.92294
    6          C           0.481320        3.5187     1.05112     2.46756
    7          C          -0.493452        4.4935     1.06700     3.42646
    8          C           0.202542        3.7975     1.09706     2.70039
    9          N          -0.561451        5.5615     1.76331     3.79814
   10          C           0.552620        3.4474     1.04651     2.40087
   11          N          -0.489954        5.4900     1.54647     3.94349
   12          C          -0.065444        4.0654     1.05779     3.00765
   13          C           0.044429        3.9556     1.12003     2.83554
   14          O           0.025121        5.9749     1.91653     4.05835
   15          N          -0.235202        5.2352     1.81950     3.41570
   16          C           0.116543        3.8835     1.08318     2.80027
   17          C          -0.298931        4.2989     1.08869     3.21024
   18          C          -0.175084        4.1751     1.03643     3.13865
   19          C          -0.286285        4.2863     1.05415     3.23214
   20          C          -0.296993        4.2970     1.05364     3.24335
   21          N          -0.607007        5.6070     1.76550     3.84151
   22          N          -0.306780        5.3068     1.80305     3.50373
   23          N          -0.202509        5.2025     1.51326     3.68925
   24          H           0.165144        0.8349     0.83486
   25          H           0.170608        0.8294     0.82939
   26          H           0.179078        0.8209     0.82092
   27          H           0.188348        0.8117     0.81165
   28          H           0.345506        0.6545     0.65449
   29          H           0.191886        0.8081     0.80811
   30          H           0.169127        0.8309     0.83087
   31          H           0.336149        0.6639     0.66385
   32          H           0.181751        0.8182     0.81825
   33          H           0.189798        0.8102     0.81020
   34          H           0.186508        0.8135     0.81349
   35          H           0.174910        0.8251     0.82509
   36          H           0.158529        0.8415     0.84147
   37          H           0.175610        0.8244     0.82439
   38          H           0.158879        0.8411     0.84112
   39          H           0.165480        0.8345     0.83452
   40          H           0.330684        0.6693     0.66932
 DIPOLE           X         Y         Z       TOTAL
 POINT-CHG.    -3.009     1.521    -1.732     3.790
 HYBRID        -0.865     0.154     0.489     1.006
 SUM           -3.874     1.675    -1.243     4.400


          ATOMIC ORBITAL ELECTRON POPULATIONS

     Atom    s        px        py        pz   
    1  C   1.04480   1.03019   1.19389   1.18145
    2  C   1.06905   0.96999   0.98083   0.85812
    3  C   1.07635   0.95613   1.18118   1.12374
    4  C   1.04641   0.82330   0.96636   0.92202
    5  N   1.52473   1.09492   1.65414   1.17389
    6  C   1.05112   0.82348   0.79522   0.84887
    7  C   1.06700   1.12630   1.29047   1.00969
    8  C   1.09706   0.85796   0.81013   1.03230
    9  N   1.76331   1.21599   1.33708   1.24507
   10  C   1.04651   0.80360   0.80458   0.79269
   11  N   1.54647   1.09268   1.67313   1.17767
   12  C   1.05779   0.88117   1.18517   0.94131
   13  C   1.12003   0.98521   0.90277   0.94756
   14  O   1.91653   1.15725   1.38547   1.51563
   15  N   1.81950   0.92817   1.25160   1.23592
   16  C   1.08318   0.96531   0.90726   0.92770
   17  C   1.08869   0.97477   1.11065   1.12482
   18  C   1.03643   0.96296   1.14273   1.03296
   19  C   1.05415   1.13151   1.01891   1.08172
   20  C   1.05364   1.15014   1.00618   1.08703
   21  N   1.76550   1.11043   1.39666   1.33442
   22  N   1.80305   0.91844   1.28868   1.29661
   23  N   1.51326   1.05403   1.43000   1.20522
   24  H   0.83486
   25  H   0.82939
   26  H   0.82092
   27  H   0.81165
   28  H   0.65449
   29  H   0.80811
   30  H   0.83087
   31  H   0.66385
   32  H   0.81825
   33  H   0.81020
   34  H   0.81349
   35  H   0.82509
   36  H   0.84147
   37  H   0.82439
   38  H   0.84112
   39  H   0.83452
   40  H   0.66932

 **********************
 *                    *
 * JOB ENDED NORMALLY *
 *                    *
 **********************



 TOTAL JOB TIME:             5.61 SECONDS

 == MOPAC DONE ==
