 *******************************************************************************
 **                                                                           **
 **                              MOPAC v23.0.3                                **
 **                                                                           **
 *******************************************************************************
 **          Digital Object Identifier (DOI): 10.5281/zenodo.6511958          **
 **    Visit the DOI location for information on how to cite this program.    **
 *******************************************************************************

                              PM7 CALCULATION RESULTS

 *******************************************************************************
 *  CALCULATION DONE:                                Fri Jul 25 18:15:35 2025  *
 *  PM7        - The PM7 Hamiltonian to be used
 *  XYZ        - CARTESIAN COORDINATE SYSTEM TO BE USED
 *  T=         - A TIME OF 172800.0 SECONDS REQUESTED
 *  DUMP=N     - RESTART FILE WRITTEN EVERY 7200.0 SECONDS REQUESTED
 *******************************************************************************
PM7 XYZ

 Lipophilicity_1801 - geometry optimisation
   ATOM   CHEMICAL          X               Y               Z
  NUMBER   SYMBOL      (ANGSTROMS)     (ANGSTROMS)     (ANGSTROMS)

     1       C         -5.14657100  *   0.68160500  *  -0.02867700  *
     2       N         -3.69001600  *   0.60230100  *   0.17711600  *
     3       C         -2.88373600  *   1.67745600  *  -0.11415600  *
     4       O         -3.36940200  *   2.75027900  *  -0.56673900  *
     5       C         -1.50531100  *   1.60177800  *   0.08425300  *
     6       C         -0.96106900  *   0.42293800  *   0.58786900  *
     7       C          0.51996700  *   0.27993100  *   0.78449400  *
     8       C          1.19136100  *  -0.18942100  *  -0.50907100  *
     9       C          2.67580000  *  -0.33838500  *  -0.31049300  *
    10       C          3.53234600  *   0.75519400  *  -0.52163000  *
    11       C          4.90773200  *   0.62426500  *  -0.30533000  *
    12       C          5.43538600  *  -0.59391000  *   0.13175100  *
    13       C          4.58796100  *  -1.68221700  *   0.35730400  *
    14       C          3.21196200  *  -1.55563400  *   0.14226100  *
    15       N         -1.77807300  *  -0.62596600  *   0.85091200  *
    16       C         -3.12199400  *  -0.55635500  *   0.65877900  *
    17       N         -3.91083900  *  -1.71365800  *   0.96648400  *
    18       H         -5.67398500  *   0.50186800  *   0.93229800  *
    19       H         -5.47499400  *   1.67405800  *  -0.40089900  *
    20       H         -5.46305300  *  -0.07465500  *  -0.77821200  *
    21       H         -0.86898700  *   2.44684900  *  -0.15231300  *
    22       H          0.95323100  *   1.25354700  *   1.10412700  *
    23       H          0.71266600  *  -0.45764400  *   1.59447600  *
    24       H          0.99307400  *   0.54336500  *  -1.32245800  *
    25       H          0.75446300  *  -1.16216900  *  -0.82665700  *
    26       H          3.13484900  *   1.70716100  *  -0.85139500  *
    27       H          5.56412300  *   1.46831700  *  -0.47326700  *
    28       H          6.49995900  *  -0.69318600  *   0.29992900  *
    29       H          4.99689600  *  -2.62313300  *   0.70216100  *
    30       H          2.56497800  *  -2.40373400  *   0.32960400  *
    31       H         -4.94490700  *  -1.74786100  *   0.83794600  *
    32       H         -3.44381900  *  -2.57298600  *   1.33234900  *



          CARTESIAN COORDINATES 

    NO.       ATOM           X           Y           Z

     1         C         -5.1466      0.6816     -0.0287
     2         N         -3.6900      0.6023      0.1771
     3         C         -2.8837      1.6775     -0.1142
     4         O         -3.3694      2.7503     -0.5667
     5         C         -1.5053      1.6018      0.0843
     6         C         -0.9611      0.4229      0.5879
     7         C          0.5200      0.2799      0.7845
     8         C          1.1914     -0.1894     -0.5091
     9         C          2.6758     -0.3384     -0.3105
    10         C          3.5323      0.7552     -0.5216
    11         C          4.9077      0.6243     -0.3053
    12         C          5.4354     -0.5939      0.1318
    13         C          4.5880     -1.6822      0.3573
    14         C          3.2120     -1.5556      0.1423
    15         N         -1.7781     -0.6260      0.8509
    16         C         -3.1220     -0.5564      0.6588
    17         N         -3.9108     -1.7137      0.9665
    18         H         -5.6740      0.5019      0.9323
    19         H         -5.4750      1.6741     -0.4009
    20         H         -5.4631     -0.0747     -0.7782
    21         H         -0.8690      2.4468     -0.1523
    22         H          0.9532      1.2535      1.1041
    23         H          0.7127     -0.4576      1.5945
    24         H          0.9931      0.5434     -1.3225
    25         H          0.7545     -1.1622     -0.8267
    26         H          3.1348      1.7072     -0.8514
    27         H          5.5641      1.4683     -0.4733
    28         H          6.5000     -0.6932      0.2999
    29         H          4.9969     -2.6231      0.7022
    30         H          2.5650     -2.4037      0.3296
    31         H         -4.9449     -1.7479      0.8379
    32         H         -3.4438     -2.5730      1.3323

 General Reference for PM7:
 "Optimization of Parameters for Semiempirical Methods VI: More Modifications to the 
 NDDO Approximations and Re-optimization of Parameters", J. J. P. Stewart, J. Mol. Mod., 1:32, 19 (2013)
 https://link.springer.com/article/10.1007/s00894-012-1667-x

           Empirical Formula: C13 H15 N3 O  =    32 atoms



      MOLECULAR POINT GROUP   :   C1  


      RHF CALCULATION, NO. OF DOUBLY OCCUPIED LEVELS = 44


          Geometry optimization using EF

          DIAGONAL MATRIX USED AS START HESSIAN

 CYCLE:     1 TIME:   0.023 TIME LEFT:  2.00D  GRAD.:   205.053 HEAT:  7.713883
 CYCLE:     2 TIME:   0.039 TIME LEFT:  2.00D  GRAD.:   133.843 HEAT: 0.6797223
 CYCLE:     3 TIME:   0.016 TIME LEFT:  2.00D  GRAD.:   127.605 HEAT:-0.8174466
 CYCLE:     4 TIME:   0.023 TIME LEFT:  2.00D  GRAD.:   115.199 HEAT: -1.749959
 CYCLE:     5 TIME:   0.016 TIME LEFT:  2.00D  GRAD.:   104.553 HEAT: -2.554008
 CYCLE:     6 TIME:   0.031 TIME LEFT:  2.00D  GRAD.:    46.946 HEAT: -4.884042
 CYCLE:     7 TIME:   0.031 TIME LEFT:  2.00D  GRAD.:    34.991 HEAT: -5.300129
 CYCLE:     8 TIME:   0.039 TIME LEFT:  2.00D  GRAD.:    15.990 HEAT: -5.534371
 CYCLE:     9 TIME:   0.016 TIME LEFT:  2.00D  GRAD.:    25.146 HEAT: -5.593702
 CYCLE:    10 TIME:   0.016 TIME LEFT:  2.00D  GRAD.:    17.869 HEAT: -5.738252
 CYCLE:    11 TIME:   0.031 TIME LEFT:  2.00D  GRAD.:    22.588 HEAT: -5.759657
 CYCLE:    12 TIME:   0.016 TIME LEFT:  2.00D  GRAD.:    10.725 HEAT: -5.868872
 CYCLE:    13 TIME:   0.039 TIME LEFT:  2.00D  GRAD.:     6.649 HEAT: -5.895040
 CYCLE:    14 TIME:   0.016 TIME LEFT:  2.00D  GRAD.:     5.824 HEAT: -5.911317
 CYCLE:    15 TIME:   0.016 TIME LEFT:  2.00D  GRAD.:     8.287 HEAT: -5.926462
 CYCLE:    16 TIME:   0.016 TIME LEFT:  2.00D  GRAD.:     5.554 HEAT: -5.953139
 CYCLE:    17 TIME:   0.016 TIME LEFT:  2.00D  GRAD.:     9.491 HEAT: -5.965858
 CYCLE:    18 TIME:   0.016 TIME LEFT:  2.00D  GRAD.:    10.655 HEAT: -5.988187
 CYCLE:    19 TIME:   0.016 TIME LEFT:  2.00D  GRAD.:    11.535 HEAT: -5.990082
 CYCLE:    20 TIME:   0.016 TIME LEFT:  2.00D  GRAD.:     9.380 HEAT: -6.025019
 CYCLE:    21 TIME:   0.016 TIME LEFT:  2.00D  GRAD.:    10.667 HEAT: -6.040993
 CYCLE:    22 TIME:   0.031 TIME LEFT:  2.00D  GRAD.:     9.542 HEAT: -6.055334
 CYCLE:    23 TIME:   0.031 TIME LEFT:  2.00D  GRAD.:     4.589 HEAT: -6.071707
 CYCLE:    24 TIME:   0.031 TIME LEFT:  2.00D  GRAD.:     3.347 HEAT: -6.075914
 CYCLE:    25 TIME:   0.031 TIME LEFT:  2.00D  GRAD.:    11.413 HEAT: -6.079322
 CYCLE:    26 TIME:   0.016 TIME LEFT:  2.00D  GRAD.:     9.319 HEAT: -6.094522
 CYCLE:    27 TIME:   0.039 TIME LEFT:  2.00D  GRAD.:     6.880 HEAT: -6.109215
 CYCLE:    28 TIME:   0.016 TIME LEFT:  2.00D  GRAD.:     5.870 HEAT: -6.109713
 CYCLE:    29 TIME:   0.016 TIME LEFT:  2.00D  GRAD.:     7.302 HEAT: -6.111763
 CYCLE:    30 TIME:   0.023 TIME LEFT:  2.00D  GRAD.:     4.252 HEAT: -6.117840
 CYCLE:    31 TIME:   0.023 TIME LEFT:  2.00D  GRAD.:     2.076 HEAT: -6.122573
 CYCLE:    32 TIME:   0.016 TIME LEFT:  2.00D  GRAD.:     4.488 HEAT: -6.124525
 CYCLE:    33 TIME:   0.062 TIME LEFT:  2.00D  GRAD.:     4.274 HEAT: -6.127137
 CYCLE:    34 TIME:   0.031 TIME LEFT:  2.00D  GRAD.:     5.667 HEAT: -6.123029
 CYCLE:    35 TIME:   0.031 TIME LEFT:  2.00D  GRAD.:     5.660 HEAT: -6.125715
 CYCLE:    36 TIME:   0.016 TIME LEFT:  2.00D  GRAD.:     4.352 HEAT: -6.127727
 CYCLE:    37 TIME:   0.016 TIME LEFT:  2.00D  GRAD.:     5.679 HEAT: -6.127566
 CYCLE:    38 TIME:   0.031 TIME LEFT:  2.00D  GRAD.:     5.276 HEAT: -6.128044
 CYCLE:    39 TIME:   0.016 TIME LEFT:  2.00D  GRAD.:     4.333 HEAT: -6.130959
 CYCLE:    40 TIME:   0.016 TIME LEFT:  2.00D  GRAD.:     6.359 HEAT: -6.128136
 CYCLE:    41 TIME:   0.016 TIME LEFT:  2.00D  GRAD.:     3.948 HEAT: -6.132431
 CYCLE:    42 TIME:   0.039 TIME LEFT:  2.00D  GRAD.:     2.300 HEAT: -6.136234
 CYCLE:    43 TIME:   0.016 TIME LEFT:  2.00D  GRAD.:     0.687 HEAT: -6.137958

     GRADIENT =  0.68683 IS LESS THAN CUTOFF =  1.00000



 -------------------------------------------------------------------------------
 PM7 XYZ

 Lipophilicity_1801 - geometry optimisation


     GEOMETRY OPTIMISED USING EIGENVECTOR FOLLOWING (EF).     
     SCF FIELD WAS ACHIEVED                                   


                              PM7 CALCULATION
                                                       MOPAC v23.0.3 Linux
                                                       Fri Jul 25 18:15:36 2025




          FINAL HEAT OF FORMATION =         -6.13796 KCAL/MOL =     -25.68122 KJ/MOL


          COSMO AREA              =        268.61 SQUARE ANGSTROMS
          COSMO VOLUME            =        284.59 CUBIC ANGSTROMS

          GRADIENT NORM           =          0.68683          =       0.12142 PER ATOM
          IONIZATION POTENTIAL    =          9.145772 EV
          HOMO LUMO ENERGIES (EV) =         -9.146 -0.250
          NO. OF FILLED LEVELS    =         44
          MOLECULAR WEIGHT        =        229.2810         POINT GROUP:  C1  

          MOLECULAR DIMENSIONS (Angstroms)

            Atom       Atom       Distance
            H    28    H    18    12.23712
            H    32    O     4     5.50162
            H    22    H    20     2.79009


          SCF CALCULATIONS        =         66

          WALL-CLOCK TIME         =      1.055 SECONDS
          COMPUTATION TIME        =     20.978 SECONDS




   ATOM   CHEMICAL          X               Y               Z
  NUMBER   SYMBOL      (ANGSTROMS)     (ANGSTROMS)     (ANGSTROMS)

     1       C         -5.13664436  *   0.66426388  *  -0.02002970  *
     2       N         -3.68706227  *   0.59378231  *   0.17327054  *
     3       C         -2.88357264  *   1.76014747  *  -0.14719836  *
     4       O         -3.48629773  *   2.72251594  *  -0.56250665  *
     5       C         -1.47712291  *   1.60942486  *   0.07514003  *
     6       C         -0.95810645  *   0.43478701  *   0.56079432  *
     7       C          0.50939709  *   0.23563070  *   0.80238067  *
     8       C          1.18877298  *  -0.20239365  *  -0.50685493  *
     9       C          2.66362141  *  -0.34061770  *  -0.28693607  *
    10       C          3.51035584  *   0.74732974  *  -0.50948349  *
    11       C          4.88159402  *   0.61817694  *  -0.30079218  *
    12       C          5.41256472  *  -0.59604639  *   0.13138399  *
    13       C          4.56782368  *  -1.68151069  *   0.35754550  *
    14       C          3.19627016  *  -1.55523852  *   0.15028223  *
    15       N         -1.74378228  *  -0.64629678  *   0.85405598  *
    16       C         -3.07366109  *  -0.55077535  *   0.65384599  *
    17       N         -3.81736859  *  -1.66858980  *   0.94956739  *
    18       H         -5.67683327  *   0.51380617  *   0.92945825  *
    19       H         -5.41823620  *   1.67550953  *  -0.39534658  *
    20       H         -5.47711354  *  -0.06352405  *  -0.77530533  *
    21       H         -0.85773435  *   2.46888420  *  -0.15878320  *
    22       H          0.97088013  *   1.16888875  *   1.18542089  *
    23       H          0.67736223  *  -0.53313526  *   1.58926646  *
    24       H          0.97143705  *   0.52753412  *  -1.31376003  *
    25       H          0.74645609  *  -1.16074405  *  -0.85346905  *
    26       H          3.09990693  *   1.69694143  *  -0.84642437  *
    27       H          5.54012188  *   1.46650632  *  -0.47652421  *
    28       H          6.48356838  *  -0.69630739  *   0.29129400  *
    29       H          4.98120528  *  -2.62947705  *   0.69567903  *
    30       H          2.53899358  *  -2.40338160  *   0.33051114  *
    31       H         -4.80616279  *  -1.69714248  *   0.85699929  *
    32       H         -3.34404869  *  -2.47941168  *   1.30808439  *

                             CARTESIAN COORDINATES

   1    C       -5.136644357     0.664263884    -0.020029695
   2    N       -3.687062265     0.593782311     0.173270535
   3    C       -2.883572642     1.760147469    -0.147198364
   4    O       -3.486297734     2.722515944    -0.562506654
   5    C       -1.477122915     1.609424857     0.075140029
   6    C       -0.958106450     0.434787012     0.560794322
   7    C        0.509397092     0.235630704     0.802380668
   8    C        1.188772985    -0.202393653    -0.506854933
   9    C        2.663621408    -0.340617704    -0.286936067
  10    C        3.510355843     0.747329743    -0.509483486
  11    C        4.881594019     0.618176938    -0.300792177
  12    C        5.412564715    -0.596046393     0.131383986
  13    C        4.567823684    -1.681510693     0.357545495
  14    C        3.196270157    -1.555238518     0.150282225
  15    N       -1.743782278    -0.646296778     0.854055975
  16    C       -3.073661092    -0.550775352     0.653845994
  17    N       -3.817368588    -1.668589801     0.949567395
  18    H       -5.676833265     0.513806166     0.929458254
  19    H       -5.418236204     1.675509532    -0.395346577
  20    H       -5.477113537    -0.063524052    -0.775305332
  21    H       -0.857734351     2.468884202    -0.158783201
  22    H        0.970880125     1.168888746     1.185420886
  23    H        0.677362226    -0.533135261     1.589266456
  24    H        0.971437052     0.527534119    -1.313760035
  25    H        0.746456094    -1.160744045    -0.853469054
  26    H        3.099906927     1.696941434    -0.846424369
  27    H        5.540121879     1.466506324    -0.476524209
  28    H        6.483568379    -0.696307389     0.291294003
  29    H        4.981205276    -2.629477051     0.695679031
  30    H        2.538993581    -2.403381597     0.330511144
  31    H       -4.806162794    -1.697142484     0.856999291
  32    H       -3.344048695    -2.479411682     1.308084395


           Empirical Formula: C13 H15 N3 O  =    32 atoms



      MOLECULAR POINT GROUP   :   C1  


                  EIGENVALUES  
 -38.93914 -36.56622 -35.11206 -30.65864 -30.38518 -28.72559 -26.84495 -25.95073
 -25.84706 -24.47170 -22.76534 -22.71673 -21.09525 -20.97751 -19.95247 -19.22272
 -18.05854 -17.63523 -17.49244 -16.92968 -16.69727 -15.84820 -15.57794 -14.98813
 -14.80542 -14.71910 -14.29258 -14.07425 -14.02827 -14.00421 -13.79509 -13.64725
 -13.03646 -12.95585 -12.17091 -11.88158 -11.62199 -11.43083 -10.99260 -10.70287
 -10.36066  -9.82791  -9.55514  -9.14577  -0.25032   0.24516   0.25180   0.70161
   0.81521   1.76756   2.27952   2.56573   2.83024   3.36593   3.69785   3.97224
   4.18635   4.21489   4.38084   4.53230   4.64826   4.81172   4.86769   4.90204
   4.99996   5.19416   5.25002   5.27825   5.32591   5.52579   5.58864   5.71883
   5.83250   5.90295   5.92544   6.15144   6.20750   6.25865   6.28366   6.33018
   6.34115   6.44680   6.53363


              NET ATOMIC CHARGES AND DIPOLE CONTRIBUTIONS

  ATOM NO.   TYPE          CHARGE      No. of ELECS.   s-Pop       p-Pop       
    1          C          -0.247449        4.2474     1.05831     3.18914
    2          N          -0.498043        5.4980     1.58781     3.91023
    3          C           0.628228        3.3718     1.08030     2.29147
    4          O          -0.507723        6.5077     1.87873     4.62900
    5          C          -0.519466        4.5195     1.07180     3.44767
    6          C           0.353173        3.6468     1.07834     2.56849
    7          C          -0.277895        4.2779     1.06028     3.21761
    8          C          -0.272454        4.2725     1.05660     3.21586
    9          C           0.017440        3.9826     1.07100     2.91156
   10          C          -0.177322        4.1773     1.08381     3.09351
   11          C          -0.137535        4.1375     1.08377     3.05377
   12          C          -0.166270        4.1663     1.08225     3.08402
   13          C          -0.137916        4.1379     1.08356     3.05435
   14          C          -0.177127        4.1771     1.08421     3.09292
   15          N          -0.595290        5.5953     1.76059     3.83470
   16          C           0.581887        3.4181     1.03810     2.38001
   17          N          -0.623260        5.6233     1.51499     4.10827
   18          H           0.145658        0.8543     0.85434
   19          H           0.200933        0.7991     0.79907
   20          H           0.146585        0.8534     0.85341
   21          H           0.203065        0.7969     0.79693
   22          H           0.164826        0.8352     0.83517
   23          H           0.175531        0.8245     0.82447
   24          H           0.158431        0.8416     0.84157
   25          H           0.160875        0.8391     0.83912
   26          H           0.154412        0.8456     0.84559
   27          H           0.146727        0.8533     0.85327
   28          H           0.148363        0.8516     0.85164
   29          H           0.146323        0.8537     0.85368
   30          H           0.154576        0.8454     0.84542
   31          H           0.315224        0.6848     0.68478
   32          H           0.335491        0.6645     0.66451
 DIPOLE           X         Y         Z       TOTAL
 POINT-CHG.    -1.379    -3.804     1.146     4.205
 HYBRID        -1.103     0.022    -0.087     1.106
 SUM           -2.482    -3.782     1.059     4.646


          ATOMIC ORBITAL ELECTRON POPULATIONS

     Atom    s        px        py        pz   
    1  C   1.05831   0.82436   1.21282   1.15196
    2  N   1.58781   1.14165   1.19723   1.57135
    3  C   1.08030   0.84275   0.72998   0.71874
    4  O   1.87873   1.69968   1.40985   1.51946
    5  C   1.07180   1.02813   1.11971   1.29983
    6  C   1.07834   0.93280   0.84710   0.78859
    7  C   1.06028   0.97198   1.17614   1.06949
    8  C   1.05660   0.99805   1.17397   1.04383
    9  C   1.07100   0.96688   0.97635   0.96833
   10  C   1.08381   1.00133   1.06126   1.03092
   11  C   1.08377   1.02029   1.04138   0.99209
   12  C   1.08225   1.07555   0.99285   1.01563
   13  C   1.08356   1.00049   1.05451   0.99935
   14  C   1.08421   1.02175   1.04952   1.02165
   15  N   1.76059   1.05975   1.35957   1.41538
   16  C   1.03810   0.82377   0.75297   0.80327
   17  N   1.51499   1.18502   1.21853   1.70473
   18  H   0.85434
   19  H   0.79907
   20  H   0.85341
   21  H   0.79693
   22  H   0.83517
   23  H   0.82447
   24  H   0.84157
   25  H   0.83912
   26  H   0.84559
   27  H   0.85327
   28  H   0.85164
   29  H   0.85368
   30  H   0.84542
   31  H   0.68478
   32  H   0.66451

 **********************
 *                    *
 * JOB ENDED NORMALLY *
 *                    *
 **********************



 TOTAL JOB TIME:             1.05 SECONDS

 == MOPAC DONE ==
