 *******************************************************************************
 **                                                                           **
 **                              MOPAC v23.0.3                                **
 **                                                                           **
 *******************************************************************************
 **          Digital Object Identifier (DOI): 10.5281/zenodo.6511958          **
 **    Visit the DOI location for information on how to cite this program.    **
 *******************************************************************************

                              PM7 CALCULATION RESULTS

 *******************************************************************************
 *  CALCULATION DONE:                                Fri Jul 25 17:34:10 2025  *
 *  PM7        - The PM7 Hamiltonian to be used
 *  XYZ        - CARTESIAN COORDINATE SYSTEM TO BE USED
 *  T=         - A TIME OF 172800.0 SECONDS REQUESTED
 *  DUMP=N     - RESTART FILE WRITTEN EVERY 7200.0 SECONDS REQUESTED
 *******************************************************************************
PM7 XYZ

 Lipophilicity_1561 - geometry optimisation
   ATOM   CHEMICAL          X               Y               Z
  NUMBER   SYMBOL      (ANGSTROMS)     (ANGSTROMS)     (ANGSTROMS)

     1       C          4.39691400  *  -0.70082600  *  -0.98111200  *
     2       C          3.08646500  *  -0.17026000  *  -0.49374500  *
     3       C          1.95995300  *  -0.99786900  *  -0.44905000  *
     4       C          0.75208300  *  -0.46573700  *   0.01471300  *
     5       N         -0.41534200  *  -1.29959400  *   0.09703300  *
     6       C         -1.74655500  *  -0.80081400  *   0.31207500  *
     7       C         -2.17721100  *   0.41090300  *  -0.25993700  *
     8       C         -3.48516500  *   0.86163500  *  -0.05535200  *
     9       C         -4.37714700  *   0.10288300  *   0.70739800  *
    10       F         -5.64531500  *   0.54076900  *   0.90281500  *
    11       C         -3.96446500  *  -1.11298800  *   1.25906300  *
    12       C         -2.65758200  *  -1.56707900  *   1.05597100  *
    13       N          0.71092700  *   0.82937200  *   0.43118400  *
    14       C          1.81424400  *   1.62128100  *   0.38562100  *
    15       N          1.73832100  *   2.97598000  *   0.82259700  *
    16       N          2.99041800  *   1.11922500  *  -0.07392100  *
    17       H          4.75872700  *  -1.49264100  *  -0.29211400  *
    18       H          4.27572400  *  -1.12805600  *  -1.99888900  *
    19       H          5.15465300  *   0.11017900  *  -1.02413000  *
    20       H          2.02066900  *  -2.03044000  *  -0.77147400  *
    21       H         -0.27961900  *  -2.33630500  *   0.08132000  *
    22       H         -1.51435300  *   0.99571000  *  -0.88364800  *
    23       H         -3.80897100  *   1.79550500  *  -0.49665000  *
    24       H         -4.65705800  *  -1.70584800  *   1.84258300  *
    25       H         -2.35013600  *  -2.51173500  *   1.48679700  *
    26       H          2.58256700  *   3.58957400  *   0.79169700  *
    27       H          0.83725500  *   3.36717600  *   1.17660800  *



          CARTESIAN COORDINATES 

    NO.       ATOM           X           Y           Z

     1         C          4.3969     -0.7008     -0.9811
     2         C          3.0865     -0.1703     -0.4937
     3         C          1.9600     -0.9979     -0.4491
     4         C          0.7521     -0.4657      0.0147
     5         N         -0.4153     -1.2996      0.0970
     6         C         -1.7466     -0.8008      0.3121
     7         C         -2.1772      0.4109     -0.2599
     8         C         -3.4852      0.8616     -0.0554
     9         C         -4.3771      0.1029      0.7074
    10         F         -5.6453      0.5408      0.9028
    11         C         -3.9645     -1.1130      1.2591
    12         C         -2.6576     -1.5671      1.0560
    13         N          0.7109      0.8294      0.4312
    14         C          1.8142      1.6213      0.3856
    15         N          1.7383      2.9760      0.8226
    16         N          2.9904      1.1192     -0.0739
    17         H          4.7587     -1.4926     -0.2921
    18         H          4.2757     -1.1281     -1.9989
    19         H          5.1547      0.1102     -1.0241
    20         H          2.0207     -2.0304     -0.7715
    21         H         -0.2796     -2.3363      0.0813
    22         H         -1.5144      0.9957     -0.8836
    23         H         -3.8090      1.7955     -0.4966
    24         H         -4.6571     -1.7058      1.8426
    25         H         -2.3501     -2.5117      1.4868
    26         H          2.5826      3.5896      0.7917
    27         H          0.8373      3.3672      1.1766

 General Reference for PM7:
 "Optimization of Parameters for Semiempirical Methods VI: More Modifications to the 
 NDDO Approximations and Re-optimization of Parameters", J. J. P. Stewart, J. Mol. Mod., 1:32, 19 (2013)
 https://link.springer.com/article/10.1007/s00894-012-1667-x

           Empirical Formula: C11 H11 N4 F  =    27 atoms



      MOLECULAR POINT GROUP   :   C1  


      RHF CALCULATION, NO. OF DOUBLY OCCUPIED LEVELS = 41


          Geometry optimization using EF

          DIAGONAL MATRIX USED AS START HESSIAN

 CYCLE:     1 TIME:   0.020 TIME LEFT:  2.00D  GRAD.:   124.785 HEAT:  16.85719
 CYCLE:     2 TIME:   0.031 TIME LEFT:  2.00D  GRAD.:   102.783 HEAT:  11.96613
 CYCLE:     3 TIME:   0.012 TIME LEFT:  2.00D  GRAD.:    73.878 HEAT:  8.374511
 CYCLE:     4 TIME:   0.027 TIME LEFT:  2.00D  GRAD.:    63.220 HEAT:  6.984664
 CYCLE:     5 TIME:   0.023 TIME LEFT:  2.00D  GRAD.:    37.172 HEAT:  6.106767
 CYCLE:     6 TIME:   0.016 TIME LEFT:  2.00D  GRAD.:    42.757 HEAT:  5.794980
 CYCLE:     7 TIME:   0.012 TIME LEFT:  2.00D  GRAD.:    43.344 HEAT:  5.370216
 CYCLE:     8 TIME:   0.023 TIME LEFT:  2.00D  GRAD.:    19.320 HEAT:  4.971124
 CYCLE:     9 TIME:   0.023 TIME LEFT:  2.00D  GRAD.:    19.327 HEAT:  4.896396
 CYCLE:    10 TIME:   0.012 TIME LEFT:  2.00D  GRAD.:    17.405 HEAT:  4.814990
 CYCLE:    11 TIME:   0.016 TIME LEFT:  2.00D  GRAD.:    12.779 HEAT:  4.727656
 CYCLE:    12 TIME:   0.012 TIME LEFT:  2.00D  GRAD.:    13.638 HEAT:  4.670143
 CYCLE:    13 TIME:   0.012 TIME LEFT:  2.00D  GRAD.:    12.829 HEAT:  4.611121
 CYCLE:    14 TIME:   0.012 TIME LEFT:  2.00D  GRAD.:    18.555 HEAT:  4.606153
 CYCLE:    15 TIME:   0.012 TIME LEFT:  2.00D  GRAD.:    15.332 HEAT:  4.548971
 CYCLE:    16 TIME:   0.023 TIME LEFT:  2.00D  GRAD.:     8.136 HEAT:  4.495879
 CYCLE:    17 TIME:   0.023 TIME LEFT:  2.00D  GRAD.:     5.377 HEAT:  4.477317
 CYCLE:    18 TIME:   0.016 TIME LEFT:  2.00D  GRAD.:     8.026 HEAT:  4.464983
 CYCLE:    19 TIME:   0.012 TIME LEFT:  2.00D  GRAD.:     4.610 HEAT:  4.437259
 CYCLE:    20 TIME:   0.023 TIME LEFT:  2.00D  GRAD.:     7.153 HEAT:  4.431387
 CYCLE:    21 TIME:   0.012 TIME LEFT:  2.00D  GRAD.:     3.843 HEAT:  4.412798
 CYCLE:    22 TIME:   0.012 TIME LEFT:  2.00D  GRAD.:     8.432 HEAT:  4.409954
 CYCLE:    23 TIME:   0.012 TIME LEFT:  2.00D  GRAD.:     4.477 HEAT:  4.384065
 CYCLE:    24 TIME:   0.035 TIME LEFT:  2.00D  GRAD.:     3.037 HEAT:  4.378400
 CYCLE:    25 TIME:   0.012 TIME LEFT:  2.00D  GRAD.:     2.187 HEAT:  4.372221
 CYCLE:    26 TIME:   0.039 TIME LEFT:  2.00D  GRAD.:    10.396 HEAT:  4.359567
 CYCLE:    27 TIME:   0.012 TIME LEFT:  2.00D  GRAD.:     7.600 HEAT:  4.325755
 CYCLE:    28 TIME:   0.035 TIME LEFT:  2.00D  GRAD.:     8.423 HEAT:  4.324912
 CYCLE:    29 TIME:   0.016 TIME LEFT:  2.00D  GRAD.:     4.571 HEAT:  4.306719
 CYCLE:    30 TIME:   0.023 TIME LEFT:  2.00D  GRAD.:     6.261 HEAT:  4.306257
 CYCLE:    31 TIME:   0.012 TIME LEFT:  2.00D  GRAD.:     3.830 HEAT:  4.297488
 CYCLE:    32 TIME:   0.016 TIME LEFT:  2.00D  GRAD.:     5.006 HEAT:  4.293267
 CYCLE:    33 TIME:   0.012 TIME LEFT:  2.00D  GRAD.:     3.124 HEAT:  4.281855
 CYCLE:    34 TIME:   0.023 TIME LEFT:  2.00D  GRAD.:     4.455 HEAT:  4.281004
 CYCLE:    35 TIME:   0.012 TIME LEFT:  2.00D  GRAD.:     1.820 HEAT:  4.271576
 CYCLE:    36 TIME:   0.027 TIME LEFT:  2.00D  GRAD.:     8.744 HEAT:  4.271308
 CYCLE:    37 TIME:   0.012 TIME LEFT:  2.00D  GRAD.:     3.526 HEAT:  4.236030
 CYCLE:    38 TIME:   0.047 TIME LEFT:  2.00D  GRAD.:     2.491 HEAT:  4.232849
 CYCLE:    39 TIME:   0.016 TIME LEFT:  2.00D  GRAD.:     3.676 HEAT:  4.223908
 CYCLE:    40 TIME:   0.035 TIME LEFT:  2.00D  GRAD.:     4.941 HEAT:  4.220877
 CYCLE:    41 TIME:   0.016 TIME LEFT:  2.00D  GRAD.:     4.192 HEAT:  4.214769
 CYCLE:    42 TIME:   0.020 TIME LEFT:  2.00D  GRAD.:     4.661 HEAT:  4.214761
 CYCLE:    43 TIME:   0.016 TIME LEFT:  2.00D  GRAD.:     3.156 HEAT:  4.204935
 CYCLE:    44 TIME:   0.035 TIME LEFT:  2.00D  GRAD.:     3.161 HEAT:  4.205100
 CYCLE:    45 TIME:   0.012 TIME LEFT:  2.00D  GRAD.:     2.928 HEAT:  4.198022
 CYCLE:    46 TIME:   0.020 TIME LEFT:  2.00D  GRAD.:     6.536 HEAT:  4.194719
 CYCLE:    47 TIME:   0.016 TIME LEFT:  2.00D  GRAD.:     5.037 HEAT:  4.179514
 CYCLE:    48 TIME:   0.043 TIME LEFT:  2.00D  GRAD.:     6.628 HEAT:  4.177632
 CYCLE:    49 TIME:   0.016 TIME LEFT:  2.00D  GRAD.:     2.914 HEAT:  4.161195
 CYCLE:    50 TIME:   0.016 TIME LEFT:  2.00D  GRAD.:     6.186 HEAT:  4.157295
 CYCLE:    51 TIME:   0.016 TIME LEFT:  2.00D  GRAD.:     2.210 HEAT:  4.137373
 CYCLE:    52 TIME:   0.012 TIME LEFT:  2.00D  GRAD.:     3.999 HEAT:  4.124294
 CYCLE:    53 TIME:   0.016 TIME LEFT:  2.00D  GRAD.:     5.901 HEAT:  4.108741
 CYCLE:    54 TIME:   0.012 TIME LEFT:  2.00D  GRAD.:     4.058 HEAT:  4.078170
 CYCLE:    55 TIME:   0.016 TIME LEFT:  2.00D  GRAD.:     3.897 HEAT:  4.035986
 CYCLE:    56 TIME:   0.012 TIME LEFT:  2.00D  GRAD.:     5.896 HEAT:  4.004463
 CYCLE:    57 TIME:   0.016 TIME LEFT:  2.00D  GRAD.:     3.642 HEAT:  3.979944
 CYCLE:    58 TIME:   0.012 TIME LEFT:  2.00D  GRAD.:     3.131 HEAT:  3.965249
 CYCLE:    59 TIME:   0.016 TIME LEFT:  2.00D  GRAD.:     3.472 HEAT:  3.935522
 CYCLE:    60 TIME:   0.012 TIME LEFT:  2.00D  GRAD.:     7.510 HEAT:  3.922382
 CYCLE:    61 TIME:   0.016 TIME LEFT:  2.00D  GRAD.:     3.563 HEAT:  3.895442
 CYCLE:    62 TIME:   0.012 TIME LEFT:  2.00D  GRAD.:     2.619 HEAT:  3.891167
 CYCLE:    63 TIME:   0.012 TIME LEFT:  2.00D  GRAD.:     1.909 HEAT:  3.886491
 CYCLE:    64 TIME:   0.016 TIME LEFT:  2.00D  GRAD.:     1.833 HEAT:  3.884466
 CYCLE:    65 TIME:   0.012 TIME LEFT:  2.00D  GRAD.:     0.903 HEAT:  3.881174

     GRADIENT =  0.90289 IS LESS THAN CUTOFF =  1.00000



 -------------------------------------------------------------------------------
 PM7 XYZ

 Lipophilicity_1561 - geometry optimisation


     GEOMETRY OPTIMISED USING EIGENVECTOR FOLLOWING (EF).     
     SCF FIELD WAS ACHIEVED                                   


                              PM7 CALCULATION
                                                       MOPAC v23.0.3 Linux
                                                       Fri Jul 25 17:34:11 2025




          FINAL HEAT OF FORMATION =          3.88117 KCAL/MOL =      16.23881 KJ/MOL


          COSMO AREA              =        245.57 SQUARE ANGSTROMS
          COSMO VOLUME            =        252.63 CUBIC ANGSTROMS

          GRADIENT NORM           =          0.90289          =       0.17376 PER ATOM
          IONIZATION POTENTIAL    =          8.754241 EV
          HOMO LUMO ENERGIES (EV) =         -8.754 -0.303
          NO. OF FILLED LEVELS    =         41
          MOLECULAR WEIGHT        =        218.2331         POINT GROUP:  C1  

          MOLECULAR DIMENSIONS (Angstroms)

            Atom       Atom       Distance
            H    19    F    10    10.89864
            H    26    H    25     6.23198
            H    22    H    24     2.13529


          SCF CALCULATIONS        =         93

          WALL-CLOCK TIME         =      1.211 SECONDS
          COMPUTATION TIME        =     24.161 SECONDS




   ATOM   CHEMICAL          X               Y               Z
  NUMBER   SYMBOL      (ANGSTROMS)     (ANGSTROMS)     (ANGSTROMS)

     1       C          4.42985968  *  -0.75589938  *  -0.66944954  *
     2       C          3.07538949  *  -0.21559459  *  -0.35692911  *
     3       C          1.93826665  *  -1.03032339  *  -0.40914444  *
     4       C          0.69243408  *  -0.42810630  *  -0.10439095  *
     5       N         -0.46284126  *  -1.18699813  *  -0.16458989  *
     6       C         -1.75361181  *  -0.71629626  *   0.19006645  *
     7       C         -2.20931113  *   0.55021420  *  -0.20559692  *
     8       C         -3.49871195  *   0.95255543  *   0.12153645  *
     9       C         -4.30985737  *   0.06978574  *   0.83373939  *
    10       F         -5.53978987  *   0.45169030  *   1.14691507  *
    11       C         -3.88548691  *  -1.19771112  *   1.22743305  *
    12       C         -2.59234234  *  -1.59073075  *   0.90105711  *
    13       N          0.59260339  *   0.88433850  *   0.23421383  *
    14       C          1.76403391  *   1.59502069  *   0.25497293  *
    15       N          1.67604530  *   2.92322514  *   0.56493867  *
    16       N          3.01063791  *   1.08989837  *  -0.02409900  *
    17       H          4.70451590  *  -1.56771865  *   0.01996952  *
    18       H          4.46990976  *  -1.15613571  *  -1.69341046  *
    19       H          5.21087149  *   0.01998595  *  -0.59014008  *
    20       H          2.01293075  *  -2.07079848  *  -0.67986363  *
    21       H         -0.35046992  *  -2.19304187  *  -0.24462268  *
    22       H         -1.54973274  *   1.22069934  *  -0.76274493  *
    23       H         -3.86126030  *   1.93538331  *  -0.17548248  *
    24       H         -4.54295023  *  -1.86424938  *   1.78315628  *
    25       H         -2.23337905  *  -2.57097114  *   1.20715226  *
    26       H          2.50730499  *   3.47374029  *   0.63829713  *
    27       H          0.79891645  *   3.31554208  *   0.84136857  *

                             CARTESIAN COORDINATES

   1    C        4.429859682    -0.755899383    -0.669449539
   2    C        3.075389487    -0.215594595    -0.356929114
   3    C        1.938266651    -1.030323387    -0.409144435
   4    C        0.692434080    -0.428106303    -0.104390946
   5    N       -0.462841261    -1.186998129    -0.164589888
   6    C       -1.753611813    -0.716296263     0.190066447
   7    C       -2.209311130     0.550214197    -0.205596922
   8    C       -3.498711948     0.952555426     0.121536449
   9    C       -4.309857372     0.069785736     0.833739387
  10    F       -5.539789866     0.451690303     1.146915070
  11    C       -3.885486906    -1.197711118     1.227433046
  12    C       -2.592342342    -1.590730753     0.901057111
  13    N        0.592603385     0.884338503     0.234213835
  14    C        1.764033907     1.595020688     0.254972934
  15    N        1.676045305     2.923225141     0.564938668
  16    N        3.010637913     1.089898374    -0.024098999
  17    H        4.704515903    -1.567718653     0.019969523
  18    H        4.469909764    -1.156135711    -1.693410465
  19    H        5.210871487     0.019985952    -0.590140084
  20    H        2.012930751    -2.070798479    -0.679863633
  21    H       -0.350469922    -2.193041868    -0.244622675
  22    H       -1.549732742     1.220699345    -0.762744926
  23    H       -3.861260304     1.935383314    -0.175482478
  24    H       -4.542950225    -1.864249375     1.783156276
  25    H       -2.233379049    -2.570971143     1.207152255
  26    H        2.507304986     3.473740291     0.638297134
  27    H        0.798916446     3.315542079     0.841368566


           Empirical Formula: C11 H11 N4 F  =    27 atoms



      MOLECULAR POINT GROUP   :   C1  


                  EIGENVALUES  
 -41.01811 -38.27618 -37.43856 -35.87296 -33.78278 -30.72236 -27.64541 -26.37375
 -26.14345 -24.67021 -23.10519 -21.95448 -21.53823 -20.83366 -19.12373 -18.46475
 -17.97254 -17.16315 -16.88439 -16.66206 -16.56623 -16.03627 -15.85971 -15.70112
 -15.08387 -14.76733 -14.71869 -14.33187 -13.94332 -13.71684 -13.61391 -13.30341
 -12.75806 -12.20607 -11.91292 -11.33776 -10.51950 -10.30129 -10.13758  -9.36808
  -8.75424  -0.30343  -0.12949   0.08230   0.42388   1.57355   2.06354   2.20027
   2.44098   2.89462   3.03689   3.41043   3.56740   3.93346   4.03590   4.18107
   4.36465   4.56029   4.68928   4.80494   4.94027   5.03674   5.35247   5.37148
   5.56081   5.58361   5.66307   5.75237   5.84763   5.94100   6.07710   6.24002
   6.30422   6.58381   6.85810


              NET ATOMIC CHARGES AND DIPOLE CONTRIBUTIONS

  ATOM NO.   TYPE          CHARGE      No. of ELECS.   s-Pop       p-Pop       
    1          C          -0.460981        4.4610     1.05297     3.40801
    2          C           0.376722        3.6233     1.07479     2.54849
    3          C          -0.541962        4.5420     1.06400     3.47796
    4          C           0.489363        3.5106     1.04828     2.46235
    5          N          -0.494229        5.4942     1.53079     3.96344
    6          C           0.179992        3.8200     1.05255     2.76745
    7          C          -0.130130        4.1301     1.08593     3.04420
    8          C          -0.186193        4.1862     1.08158     3.10461
    9          C           0.163668        3.8363     1.09281     2.74352
   10          F          -0.175329        7.1753     1.96611     5.20922
   11          C          -0.184447        4.1844     1.07946     3.10499
   12          C          -0.194103        4.1941     1.07964     3.11447
   13          N          -0.621918        5.6219     1.76528     3.85663
   14          C           0.571016        3.4290     1.04378     2.38520
   15          N          -0.578725        5.5787     1.51101     4.06771
   16          N          -0.586684        5.5867     1.76507     3.82162
   17          H           0.171118        0.8289     0.82888
   18          H           0.171026        0.8290     0.82897
   19          H           0.182835        0.8172     0.81717
   20          H           0.184521        0.8155     0.81548
   21          H           0.319514        0.6805     0.68049
   22          H           0.190576        0.8094     0.80942
   23          H           0.173632        0.8264     0.82637
   24          H           0.171826        0.8282     0.82817
   25          H           0.160494        0.8395     0.83951
   26          H           0.324132        0.6759     0.67587
   27          H           0.324271        0.6757     0.67573
 DIPOLE           X         Y         Z       TOTAL
 POINT-CHG.     1.891    -0.922    -0.519     2.167
 HYBRID        -0.385    -0.480     0.344     0.705
 SUM            1.507    -1.402    -0.175     2.065


          ATOMIC ORBITAL ELECTRON POPULATIONS

     Atom    s        px        py        pz   
    1  C   1.05297   1.05946   1.17402   1.17452
    2  C   1.07479   0.94603   0.83723   0.76523
    3  C   1.06400   1.00070   1.13341   1.34386
    4  C   1.04828   0.83261   0.83197   0.79777
    5  N   1.53079   1.10437   1.18003   1.67905
    6  C   1.05255   0.81813   0.97925   0.97007
    7  C   1.08593   1.00906   1.01963   1.01552
    8  C   1.08158   1.00089   1.07720   1.02653
    9  C   1.09281   0.81114   0.95587   0.97652
   10  F   1.96611   1.35519   1.92307   1.93096
   11  C   1.07946   1.02804   1.02581   1.05114
   12  C   1.07964   1.00469   1.08031   1.02946
   13  N   1.76528   1.31180   1.14220   1.40263
   14  C   1.04378   0.78887   0.80398   0.79235
   15  N   1.51101   1.22045   1.15082   1.69645
   16  N   1.76507   1.25845   1.21123   1.35194
   17  H   0.82888
   18  H   0.82897
   19  H   0.81717
   20  H   0.81548
   21  H   0.68049
   22  H   0.80942
   23  H   0.82637
   24  H   0.82817
   25  H   0.83951
   26  H   0.67587
   27  H   0.67573

 **********************
 *                    *
 * JOB ENDED NORMALLY *
 *                    *
 **********************



 TOTAL JOB TIME:             1.21 SECONDS

 == MOPAC DONE ==
