 *******************************************************************************
 **                                                                           **
 **                              MOPAC v23.0.3                                **
 **                                                                           **
 *******************************************************************************
 **          Digital Object Identifier (DOI): 10.5281/zenodo.6511958          **
 **    Visit the DOI location for information on how to cite this program.    **
 *******************************************************************************

                              PM7 CALCULATION RESULTS

 *******************************************************************************
 *  CALCULATION DONE:                                Fri Jul 25 19:44:33 2025  *
 *  PM7        - The PM7 Hamiltonian to be used
 *  XYZ        - CARTESIAN COORDINATE SYSTEM TO BE USED
 *  T=         - A TIME OF 172800.0 SECONDS REQUESTED
 *  DUMP=N     - RESTART FILE WRITTEN EVERY 7200.0 SECONDS REQUESTED
 *******************************************************************************
PM7 XYZ

 Lipophilicity_415 - geometry optimisation
   ATOM   CHEMICAL          X               Y               Z
  NUMBER   SYMBOL      (ANGSTROMS)     (ANGSTROMS)     (ANGSTROMS)

     1       C          0.93324100  *  -1.11376300  *   4.70423500  *
     2       C         -0.10005500  *  -0.95403500  *   3.62230900  *
     3       C         -1.44585900  *  -1.22513900  *   3.91332400  *
     4       C         -2.42663000  *  -1.08198800  *   2.93259400  *
     5       C         -2.08556000  *  -0.66159300  *   1.64186200  *
     6       N         -3.11616600  *  -0.55136700  *   0.64647600  *
     7       C         -3.19446800  *   0.52096900  *  -0.31328800  *
     8       O         -2.25879100  *   1.36180800  *  -0.39932200  *
     9       C         -4.37712400  *   0.67333800  *  -1.19606800  *
    10       C         -4.23795700  *   1.29551700  *  -2.44511200  *
    11       C         -5.35372800  *   1.45844200  *  -3.26368400  *
    12       N         -6.57200200  *   1.02604400  *  -2.84959200  *
    13       C         -6.76703400  *   0.42726800  *  -1.63974100  *
    14       C         -5.65374800  *   0.24367200  *  -0.79086700  *
    15       N         -8.10294500  *  -0.00105300  *  -1.26271500  *
    16       C         -9.16430000  *   0.07617400  *  -2.28474600  *
    17       C        -10.55662700  *  -0.17220200  *  -1.70358700  *
    18       O        -10.53711000  *  -1.27242200  *  -0.82347600  *
    19       C         -9.81588000  *  -0.91109400  *   0.33156500  *
    20       C         -8.33073000  *  -0.70440700  *   0.01681900  *
    21       C         -0.73571400  *  -0.42820800  *   1.33107000  *
    22       C          0.26311100  *  -0.55453900  *   2.31452200  *
    23       N          1.64653900  *  -0.34542500  *   1.97150700  *
    24       C          2.09432700  *   0.68945800  *   1.07748600  *
    25       O          1.32490900  *   1.64697900  *   0.79005200  *
    26       C          3.47454100  *   0.67775200  *   0.53836100  *
    27       C          4.18982400  *  -0.52609700  *   0.41190700  *
    28       C          5.49890100  *  -0.52589600  *  -0.07905600  *
    29       C          6.11752700  *   0.68137700  *  -0.45249400  *
    30       O          7.43661600  *   0.73577200  *  -0.92722700  *
    31       C          8.28690100  *  -0.39857000  *  -1.08316400  *
    32       C          9.62721300  *   0.03447500  *  -1.59710600  *
    33       C         10.78087600  *  -0.70061400  *  -1.28316100  *
    34       C         12.01212900  *  -0.30037300  *  -1.80673300  *
    35       C         12.08124600  *   0.81417500  *  -2.64485800  *
    36       C         10.91010600  *   1.51132600  *  -2.95249400  *
    37       N          9.72009600  *   1.10684900  *  -2.43331400  *
    38       C          5.39896100  *   1.87678100  *  -0.34451200  *
    39       C          4.08743200  *   1.87782500  *   0.13898300  *
    40       H          0.46398400  *  -1.23758500  *   5.70388100  *
    41       H          1.55421900  *  -2.01164300  *   4.49732500  *
    42       H          1.58507700  *  -0.21495800  *   4.74471400  *
    43       H         -1.74173900  *  -1.54414500  *   4.90491900  *
    44       H         -3.45998700  *  -1.29205200  *   3.18069500  *
    45       H         -3.90068500  *  -1.23841000  *   0.70442000  *
    46       H         -3.27252200  *   1.64578400  *  -2.78916600  *
    47       H         -5.25202900  *   1.92917100  *  -4.23242800  *
    48       H         -5.77574100  *  -0.20344300  *   0.18258200  *
    49       H         -9.16741500  *   1.08455800  *  -2.75405800  *
    50       H         -8.95986700  *  -0.67722400  *  -3.07649800  *
    51       H        -11.25895500  *  -0.39608400  *  -2.53363100  *
    52       H        -10.94007600  *   0.74944100  *  -1.20737500  *
    53       H         -9.90881500  *  -1.73125400  *   1.07506800  *
    54       H        -10.24641000  *  -0.00327400  *   0.81510500  *
    55       H         -7.90312600  *  -0.11453800  *   0.85449200  *
    56       H         -7.82439700  *  -1.69315200  *  -0.02043400  *
    57       H         -0.45447700  *  -0.19890300  *   0.31267300  *
    58       H          2.37136200  *  -0.91198700  *   2.46495600  *
    59       H          3.73617800  *  -1.47256700  *   0.67922000  *
    60       H          6.02127600  *  -1.46941900  *  -0.16050500  *
    61       H          8.40536900  *  -0.90514700  *  -0.09922100  *
    62       H          7.83788300  *  -1.10982400  *  -1.80985900  *
    63       H         10.72738100  *  -1.57102500  *  -0.64038300  *
    64       H         12.91002000  *  -0.85505600  *  -1.56551000  *
    65       H         13.03118000  *   1.13147000  *  -3.05589900  *
    66       H         10.94578400  *   2.37141700  *  -3.60754700  *
    67       H          5.86328300  *   2.81214500  *  -0.62584300  *
    68       H          3.56117700  *   2.82048800  *   0.22367100  *



          CARTESIAN COORDINATES 

    NO.       ATOM           X           Y           Z

     1         C          0.9332     -1.1138      4.7042
     2         C         -0.1001     -0.9540      3.6223
     3         C         -1.4459     -1.2251      3.9133
     4         C         -2.4266     -1.0820      2.9326
     5         C         -2.0856     -0.6616      1.6419
     6         N         -3.1162     -0.5514      0.6465
     7         C         -3.1945      0.5210     -0.3133
     8         O         -2.2588      1.3618     -0.3993
     9         C         -4.3771      0.6733     -1.1961
    10         C         -4.2380      1.2955     -2.4451
    11         C         -5.3537      1.4584     -3.2637
    12         N         -6.5720      1.0260     -2.8496
    13         C         -6.7670      0.4273     -1.6397
    14         C         -5.6537      0.2437     -0.7909
    15         N         -8.1029     -0.0011     -1.2627
    16         C         -9.1643      0.0762     -2.2847
    17         C        -10.5566     -0.1722     -1.7036
    18         O        -10.5371     -1.2724     -0.8235
    19         C         -9.8159     -0.9111      0.3316
    20         C         -8.3307     -0.7044      0.0168
    21         C         -0.7357     -0.4282      1.3311
    22         C          0.2631     -0.5545      2.3145
    23         N          1.6465     -0.3454      1.9715
    24         C          2.0943      0.6895      1.0775
    25         O          1.3249      1.6470      0.7901
    26         C          3.4745      0.6778      0.5384
    27         C          4.1898     -0.5261      0.4119
    28         C          5.4989     -0.5259     -0.0791
    29         C          6.1175      0.6814     -0.4525
    30         O          7.4366      0.7358     -0.9272
    31         C          8.2869     -0.3986     -1.0832
    32         C          9.6272      0.0345     -1.5971
    33         C         10.7809     -0.7006     -1.2832
    34         C         12.0121     -0.3004     -1.8067
    35         C         12.0812      0.8142     -2.6449
    36         C         10.9101      1.5113     -2.9525
    37         N          9.7201      1.1068     -2.4333
    38         C          5.3990      1.8768     -0.3445
    39         C          4.0874      1.8778      0.1390
    40         H          0.4640     -1.2376      5.7039
    41         H          1.5542     -2.0116      4.4973
    42         H          1.5851     -0.2150      4.7447
    43         H         -1.7417     -1.5441      4.9049
    44         H         -3.4600     -1.2921      3.1807
    45         H         -3.9007     -1.2384      0.7044
    46         H         -3.2725      1.6458     -2.7892
    47         H         -5.2520      1.9292     -4.2324
    48         H         -5.7757     -0.2034      0.1826
    49         H         -9.1674      1.0846     -2.7541
    50         H         -8.9599     -0.6772     -3.0765
    51         H        -11.2590     -0.3961     -2.5336
    52         H        -10.9401      0.7494     -1.2074
    53         H         -9.9088     -1.7313      1.0751
    54         H        -10.2464     -0.0033      0.8151
    55         H         -7.9031     -0.1145      0.8545
    56         H         -7.8244     -1.6932     -0.0204
    57         H         -0.4545     -0.1989      0.3127
    58         H          2.3714     -0.9120      2.4650
    59         H          3.7362     -1.4726      0.6792
    60         H          6.0213     -1.4694     -0.1605
    61         H          8.4054     -0.9051     -0.0992
    62         H          7.8379     -1.1098     -1.8099
    63         H         10.7274     -1.5710     -0.6404
    64         H         12.9100     -0.8551     -1.5655
    65         H         13.0312      1.1315     -3.0559
    66         H         10.9458      2.3714     -3.6075
    67         H          5.8633      2.8121     -0.6258
    68         H          3.5612      2.8205      0.2237

 General Reference for PM7:
 "Optimization of Parameters for Semiempirical Methods VI: More Modifications to the 
 NDDO Approximations and Re-optimization of Parameters", J. J. P. Stewart, J. Mol. Mod., 1:32, 19 (2013)
 https://link.springer.com/article/10.1007/s00894-012-1667-x

           Empirical Formula: C30 H29 N5 O4  =    68 atoms



      MOLECULAR POINT GROUP   :   C1  


      RHF CALCULATION, NO. OF DOUBLY OCCUPIED LEVELS = 99


          Geometry optimization using L-BFGS
 CYCLE:     1 TIME:   0.125 TIME LEFT:  2.00D  GRAD.:   242.379 HEAT: -3.597556
 CYCLE:     2 TIME:   0.062 TIME LEFT:  2.00D  GRAD.:   237.033 HEAT: -4.178474
 CYCLE:     3 TIME:   0.078 TIME LEFT:  2.00D  GRAD.:    87.112 HEAT: -18.91849
 CYCLE:     4 TIME:   0.086 TIME LEFT:  2.00D  GRAD.:   237.143 HEAT: -4.178723
 CYCLE:     5 TIME:   0.078 TIME LEFT:  2.00D  GRAD.:    87.162 HEAT: -18.91832
 CYCLE:     6 TIME:   0.062 TIME LEFT:  2.00D  GRAD.:    57.571 HEAT: -20.71894
 CYCLE:     7 TIME:   0.070 TIME LEFT:  2.00D  GRAD.:    48.314 HEAT: -23.61062
 CYCLE:     8 TIME:   0.070 TIME LEFT:  2.00D  GRAD.:    45.200 HEAT: -25.45612
 CYCLE:     9 TIME:   0.078 TIME LEFT:  2.00D  GRAD.:    77.765 HEAT: -26.98391
 CYCLE:    10 TIME:   0.062 TIME LEFT:  2.00D  GRAD.:    38.483 HEAT: -28.50314
 CYCLE:    11 TIME:   0.062 TIME LEFT:  2.00D  GRAD.:    31.627 HEAT: -29.22710
 CYCLE:    12 TIME:   0.070 TIME LEFT:  2.00D  GRAD.:    36.279 HEAT: -30.27499
 CYCLE:    13 TIME:   0.070 TIME LEFT:  2.00D  GRAD.:    66.258 HEAT: -30.76540
 CYCLE:    14 TIME:   0.062 TIME LEFT:  2.00D  GRAD.:    28.151 HEAT: -31.50473
 CYCLE:    15 TIME:   0.070 TIME LEFT:  2.00D  GRAD.:    21.514 HEAT: -31.97437
 CYCLE:    16 TIME:   0.070 TIME LEFT:  2.00D  GRAD.:    26.539 HEAT: -32.41605
 CYCLE:    17 TIME:   0.062 TIME LEFT:  2.00D  GRAD.:    24.846 HEAT: -33.10571
 CYCLE:    18 TIME:   0.070 TIME LEFT:  2.00D  GRAD.:    51.353 HEAT: -33.36191
 CYCLE:    19 TIME:   0.070 TIME LEFT:  2.00D  GRAD.:    15.823 HEAT: -33.96454
 CYCLE:    20 TIME:   0.062 TIME LEFT:  2.00D  GRAD.:    13.260 HEAT: -34.15831
 CYCLE:    21 TIME:   0.070 TIME LEFT:  2.00D  GRAD.:    20.525 HEAT: -34.44860
 CYCLE:    22 TIME:   0.070 TIME LEFT:  2.00D  GRAD.:    40.148 HEAT: -34.53396
 CYCLE:    23 TIME:   0.062 TIME LEFT:  2.00D  GRAD.:    14.546 HEAT: -34.81214
 CYCLE:    24 TIME:   0.062 TIME LEFT:  2.00D  GRAD.:    11.367 HEAT: -34.95116
 CYCLE:    25 TIME:   0.062 TIME LEFT:  2.00D  GRAD.:    13.855 HEAT: -35.08992
 CYCLE:    26 TIME:   0.062 TIME LEFT:  2.00D  GRAD.:    14.022 HEAT: -35.32763
 CYCLE:    27 TIME:   0.070 TIME LEFT:  2.00D  GRAD.:    62.158 HEAT: -35.00841
 CYCLE:    28 TIME:   0.070 TIME LEFT:  2.00D  GRAD.:    11.413 HEAT: -35.63068
 CYCLE:    29 TIME:   0.062 TIME LEFT:  2.00D  GRAD.:     8.264 HEAT: -35.69473
 CYCLE:    30 TIME:   0.070 TIME LEFT:  2.00D  GRAD.:    13.941 HEAT: -35.83481
 CYCLE:    31 TIME:   0.070 TIME LEFT:  2.00D  GRAD.:    18.008 HEAT: -35.92858
 CYCLE:    32 TIME:   0.062 TIME LEFT:  2.00D  GRAD.:    11.309 HEAT: -36.02481
 CYCLE:    33 TIME:   0.070 TIME LEFT:  2.00D  GRAD.:     9.438 HEAT: -36.15798
 CYCLE:    34 TIME:   0.062 TIME LEFT:  2.00D  GRAD.:    11.117 HEAT: -36.24471
 CYCLE:    35 TIME:   0.070 TIME LEFT:  2.00D  GRAD.:    14.611 HEAT: -36.38313
 CYCLE:    36 TIME:   0.062 TIME LEFT:  2.00D  GRAD.:    11.330 HEAT: -36.48997
 CYCLE:    37 TIME:   0.062 TIME LEFT:  2.00D  GRAD.:    10.071 HEAT: -36.56806
 CYCLE:    38 TIME:   0.070 TIME LEFT:  2.00D  GRAD.:    15.575 HEAT: -36.67909
 CYCLE:    39 TIME:   0.070 TIME LEFT:  2.00D  GRAD.:    12.728 HEAT: -36.76844
 CYCLE:    40 TIME:   0.062 TIME LEFT:  2.00D  GRAD.:    10.096 HEAT: -36.84497
 CYCLE:    41 TIME:   0.062 TIME LEFT:  2.00D  GRAD.:    13.329 HEAT: -36.97171
 CYCLE:    42 TIME:   0.070 TIME LEFT:  2.00D  GRAD.:    14.534 HEAT: -37.06125
 CYCLE:    43 TIME:   0.062 TIME LEFT:  2.00D  GRAD.:    11.301 HEAT: -37.15444
 CYCLE:    44 TIME:   0.078 TIME LEFT:  2.00D  GRAD.:    11.563 HEAT: -37.34851
 CYCLE:    45 TIME:   0.070 TIME LEFT:  2.00D  GRAD.:    22.660 HEAT: -37.41570
 CYCLE:    46 TIME:   0.062 TIME LEFT:  2.00D  GRAD.:    10.598 HEAT: -37.52364
 CYCLE:    47 TIME:   0.062 TIME LEFT:  2.00D  GRAD.:     8.297 HEAT: -37.60921
 CYCLE:    48 TIME:   0.070 TIME LEFT:  2.00D  GRAD.:     9.932 HEAT: -37.67694
 CYCLE:    49 TIME:   0.062 TIME LEFT:  2.00D  GRAD.:    18.986 HEAT: -37.75147
 CYCLE:    50 TIME:   0.070 TIME LEFT:  2.00D  GRAD.:     8.941 HEAT: -37.85234
 CYCLE:    51 TIME:   0.070 TIME LEFT:  2.00D  GRAD.:     7.355 HEAT: -37.92390
 CYCLE:    52 TIME:   0.070 TIME LEFT:  2.00D  GRAD.:     9.223 HEAT: -37.98557
 CYCLE:    53 TIME:   0.062 TIME LEFT:  2.00D  GRAD.:    20.319 HEAT: -38.02629
 CYCLE:    54 TIME:   0.062 TIME LEFT:  2.00D  GRAD.:     8.840 HEAT: -38.12167
 CYCLE:    55 TIME:   0.062 TIME LEFT:  2.00D  GRAD.:     7.070 HEAT: -38.18266
 CYCLE:    56 TIME:   0.070 TIME LEFT:  2.00D  GRAD.:     8.038 HEAT: -38.23011
 CYCLE:    57 TIME:   0.070 TIME LEFT:  2.00D  GRAD.:    23.916 HEAT: -38.23594
 CYCLE:    58 TIME:   0.062 TIME LEFT:  2.00D  GRAD.:     6.959 HEAT: -38.31996
 CYCLE:    59 TIME:   0.062 TIME LEFT:  2.00D  GRAD.:     5.046 HEAT: -38.34692
 CYCLE:    60 TIME:   0.062 TIME LEFT:  2.00D  GRAD.:     6.139 HEAT: -38.38550
 CYCLE:    61 TIME:   0.070 TIME LEFT:  2.00D  GRAD.:    11.561 HEAT: -38.42445
 CYCLE:    62 TIME:   0.062 TIME LEFT:  2.00D  GRAD.:    11.386 HEAT: -38.45090
 CYCLE:    63 TIME:   0.070 TIME LEFT:  2.00D  GRAD.:     6.128 HEAT: -38.49000
 CYCLE:    64 TIME:   0.062 TIME LEFT:  2.00D  GRAD.:     5.594 HEAT: -38.52257
 CYCLE:    65 TIME:   0.062 TIME LEFT:  2.00D  GRAD.:     6.920 HEAT: -38.55736
 CYCLE:    66 TIME:   0.070 TIME LEFT:  2.00D  GRAD.:     7.583 HEAT: -38.61310
 CYCLE:    67 TIME:   0.070 TIME LEFT:  2.00D  GRAD.:    19.400 HEAT: -38.61904
 CYCLE:    68 TIME:   0.070 TIME LEFT:  2.00D  GRAD.:     7.301 HEAT: -38.70184
 CYCLE:    69 TIME:   0.062 TIME LEFT:  2.00D  GRAD.:     4.764 HEAT: -38.72950
 CYCLE:    70 TIME:   0.070 TIME LEFT:  2.00D  GRAD.:     5.773 HEAT: -38.77198
 CYCLE:    71 TIME:   0.070 TIME LEFT:  2.00D  GRAD.:     7.920 HEAT: -38.80570
 CYCLE:    72 TIME:   0.062 TIME LEFT:  2.00D  GRAD.:    10.774 HEAT: -38.84883
 CYCLE:    73 TIME:   0.070 TIME LEFT:  2.00D  GRAD.:     6.978 HEAT: -38.90291
 CYCLE:    74 TIME:   0.062 TIME LEFT:  2.00D  GRAD.:     7.126 HEAT: -38.94053
 CYCLE:    75 TIME:   0.062 TIME LEFT:  2.00D  GRAD.:     9.360 HEAT: -38.98487
 CYCLE:    76 TIME:   0.070 TIME LEFT:  2.00D  GRAD.:     8.765 HEAT: -39.04446
 CYCLE:    77 TIME:   0.070 TIME LEFT:  2.00D  GRAD.:    14.890 HEAT: -39.09059
 CYCLE:    78 TIME:   0.062 TIME LEFT:  2.00D  GRAD.:     6.611 HEAT: -39.15553
 CYCLE:    79 TIME:   0.062 TIME LEFT:  2.00D  GRAD.:     6.326 HEAT: -39.19524
 CYCLE:    80 TIME:   0.070 TIME LEFT:  2.00D  GRAD.:     7.497 HEAT: -39.23321
 CYCLE:    81 TIME:   0.070 TIME LEFT:  2.00D  GRAD.:    21.578 HEAT: -39.21479
 CYCLE:    82 TIME:   0.062 TIME LEFT:  2.00D  GRAD.:     5.828 HEAT: -39.28837
 CYCLE:    83 TIME:   0.062 TIME LEFT:  2.00D  GRAD.:     4.336 HEAT: -39.30638
 CYCLE:    84 TIME:   0.062 TIME LEFT:  2.00D  GRAD.:     5.620 HEAT: -39.33686
 CYCLE:    85 TIME:   0.070 TIME LEFT:  2.00D  GRAD.:     7.618 HEAT: -39.37487
 CYCLE:    86 TIME:   0.062 TIME LEFT:  2.00D  GRAD.:    11.046 HEAT: -39.39655
 CYCLE:    87 TIME:   0.078 TIME LEFT:  2.00D  GRAD.:     5.048 HEAT: -39.43255
 CYCLE:    88 TIME:   0.070 TIME LEFT:  2.00D  GRAD.:     4.622 HEAT: -39.45125
 CYCLE:    89 TIME:   0.062 TIME LEFT:  2.00D  GRAD.:     5.703 HEAT: -39.47168
 CYCLE:    90 TIME:   0.070 TIME LEFT:  2.00D  GRAD.:     9.002 HEAT: -39.49024
 CYCLE:    91 TIME:   0.062 TIME LEFT:  2.00D  GRAD.:     4.046 HEAT: -39.51118
 CYCLE:    92 TIME:   0.062 TIME LEFT:  2.00D  GRAD.:     3.923 HEAT: -39.52380
 CYCLE:    93 TIME:   0.062 TIME LEFT:  2.00D  GRAD.:     4.414 HEAT: -39.53710
 CYCLE:    94 TIME:   0.070 TIME LEFT:  2.00D  GRAD.:    10.023 HEAT: -39.55205
 CYCLE:    95 TIME:   0.062 TIME LEFT:  2.00D  GRAD.:     4.596 HEAT: -39.57307
 CYCLE:    96 TIME:   0.062 TIME LEFT:  2.00D  GRAD.:     3.177 HEAT: -39.58370
 CYCLE:    97 TIME:   0.062 TIME LEFT:  2.00D  GRAD.:     3.759 HEAT: -39.59505
 CYCLE:    98 TIME:   0.070 TIME LEFT:  2.00D  GRAD.:     8.953 HEAT: -39.60458
 CYCLE:    99 TIME:   0.062 TIME LEFT:  2.00D  GRAD.:     4.936 HEAT: -39.61933
 CYCLE:   100 TIME:   0.062 TIME LEFT:  2.00D  GRAD.:     3.482 HEAT: -39.63323
 CYCLE:   101 TIME:   0.070 TIME LEFT:  2.00D  GRAD.:     4.343 HEAT: -39.63917
 CYCLE:   102 TIME:   0.062 TIME LEFT:  2.00D  GRAD.:     5.057 HEAT: -39.65985
 CYCLE:   103 TIME:   0.062 TIME LEFT:  2.00D  GRAD.:     8.535 HEAT: -39.67068
 CYCLE:   104 TIME:   0.070 TIME LEFT:  2.00D  GRAD.:     4.282 HEAT: -39.68972
 CYCLE:   105 TIME:   0.062 TIME LEFT:  2.00D  GRAD.:     4.055 HEAT: -39.70288
 CYCLE:   106 TIME:   0.062 TIME LEFT:  2.00D  GRAD.:     5.478 HEAT: -39.72419
 CYCLE:   107 TIME:   0.070 TIME LEFT:  2.00D  GRAD.:     7.593 HEAT: -39.73764
 CYCLE:   108 TIME:   0.070 TIME LEFT:  2.00D  GRAD.:     4.754 HEAT: -39.74998
 CYCLE:   109 TIME:   0.062 TIME LEFT:  2.00D  GRAD.:     3.782 HEAT: -39.76180
 CYCLE:   110 TIME:   0.062 TIME LEFT:  2.00D  GRAD.:     4.498 HEAT: -39.77630
 CYCLE:   111 TIME:   0.062 TIME LEFT:  2.00D  GRAD.:     5.918 HEAT: -39.78767
 CYCLE:   112 TIME:   0.070 TIME LEFT:  2.00D  GRAD.:     4.462 HEAT: -39.79861
 CYCLE:   113 TIME:   0.062 TIME LEFT:  2.00D  GRAD.:     3.561 HEAT: -39.81060
 CYCLE:   114 TIME:   0.070 TIME LEFT:  2.00D  GRAD.:     4.410 HEAT: -39.82164
 CYCLE:   115 TIME:   0.062 TIME LEFT:  2.00D  GRAD.:     4.239 HEAT: -39.83553
 CYCLE:   116 TIME:   0.062 TIME LEFT:  2.00D  GRAD.:     6.339 HEAT: -39.85062
 CYCLE:   117 TIME:   0.070 TIME LEFT:  2.00D  GRAD.:     3.853 HEAT: -39.86421
 CYCLE:   118 TIME:   0.062 TIME LEFT:  2.00D  GRAD.:     3.152 HEAT: -39.87207
 CYCLE:   119 TIME:   0.070 TIME LEFT:  2.00D  GRAD.:     3.548 HEAT: -39.88283
 CYCLE:   120 TIME:   0.070 TIME LEFT:  2.00D  GRAD.:     6.196 HEAT: -39.89182
 CYCLE:   121 TIME:   0.062 TIME LEFT:  2.00D  GRAD.:     3.912 HEAT: -39.90327
 CYCLE:   122 TIME:   0.070 TIME LEFT:  2.00D  GRAD.:     3.668 HEAT: -39.91692
 CYCLE:   123 TIME:   0.062 TIME LEFT:  2.00D  GRAD.:     4.080 HEAT: -39.92759
 CYCLE:   124 TIME:   0.062 TIME LEFT:  2.00D  GRAD.:     5.844 HEAT: -39.94740
 CYCLE:   125 TIME:   0.070 TIME LEFT:  2.00D  GRAD.:     6.988 HEAT: -39.95812
 CYCLE:   126 TIME:   0.062 TIME LEFT:  2.00D  GRAD.:     4.119 HEAT: -39.96861
 CYCLE:   127 TIME:   0.062 TIME LEFT:  2.00D  GRAD.:     3.218 HEAT: -39.98154
 CYCLE:   128 TIME:   0.070 TIME LEFT:  2.00D  GRAD.:     4.318 HEAT: -39.99533
 CYCLE:   129 TIME:   0.070 TIME LEFT:  2.00D  GRAD.:     6.914 HEAT: -40.01113
 CYCLE:   130 TIME:   0.070 TIME LEFT:  2.00D  GRAD.:     5.748 HEAT: -40.02736
 CYCLE:   131 TIME:   0.070 TIME LEFT:  2.00D  GRAD.:     4.547 HEAT: -40.04246
 CYCLE:   132 TIME:   0.062 TIME LEFT:  2.00D  GRAD.:     5.818 HEAT: -40.06445
 CYCLE:   133 TIME:   0.070 TIME LEFT:  2.00D  GRAD.:     5.805 HEAT: -40.08232
 CYCLE:   134 TIME:   0.062 TIME LEFT:  2.00D  GRAD.:     5.479 HEAT: -40.10039
 CYCLE:   135 TIME:   0.070 TIME LEFT:  2.00D  GRAD.:     9.679 HEAT: -40.11944
 CYCLE:   136 TIME:   0.070 TIME LEFT:  2.00D  GRAD.:     7.030 HEAT: -40.15272
 CYCLE:   137 TIME:   0.062 TIME LEFT:  2.00D  GRAD.:     5.961 HEAT: -40.18501
 CYCLE:   138 TIME:   0.070 TIME LEFT:  2.00D  GRAD.:     5.484 HEAT: -40.21567
 CYCLE:   139 TIME:   0.070 TIME LEFT:  2.00D  GRAD.:     8.604 HEAT: -40.24255
 CYCLE:   140 TIME:   0.070 TIME LEFT:  2.00D  GRAD.:    10.143 HEAT: -40.26183
 CYCLE:   141 TIME:   0.070 TIME LEFT:  2.00D  GRAD.:    10.144 HEAT: -40.29811
 CYCLE:   142 TIME:   0.070 TIME LEFT:  2.00D  GRAD.:     5.458 HEAT: -40.32350
 CYCLE:   143 TIME:   0.062 TIME LEFT:  2.00D  GRAD.:     6.606 HEAT: -40.34238
 CYCLE:   144 TIME:   0.070 TIME LEFT:  2.00D  GRAD.:     8.490 HEAT: -40.36515
 CYCLE:   145 TIME:   0.078 TIME LEFT:  2.00D  GRAD.:    10.282 HEAT: -40.38792
 CYCLE:   146 TIME:   0.062 TIME LEFT:  2.00D  GRAD.:    11.121 HEAT: -40.37697
 CYCLE:   147 TIME:   0.070 TIME LEFT:  2.00D  GRAD.:     9.763 HEAT: -40.44239
 CYCLE:   148 TIME:   0.062 TIME LEFT:  2.00D  GRAD.:     5.219 HEAT: -40.46233
 CYCLE:   149 TIME:   0.062 TIME LEFT:  2.00D  GRAD.:     3.733 HEAT: -40.47428
 CYCLE:   150 TIME:   0.078 TIME LEFT:  2.00D  GRAD.:     5.933 HEAT: -40.50332
 CYCLE:   151 TIME:   0.062 TIME LEFT:  2.00D  GRAD.:     9.832 HEAT: -40.52149
 CYCLE:   152 TIME:   0.062 TIME LEFT:  2.00D  GRAD.:     7.101 HEAT: -40.54686
 CYCLE:   153 TIME:   0.078 TIME LEFT:  2.00D  GRAD.:     7.787 HEAT: -40.55957
 CYCLE:   154 TIME:   0.070 TIME LEFT:  2.00D  GRAD.:    16.240 HEAT: -40.56686
 CYCLE:   155 TIME:   0.062 TIME LEFT:  2.00D  GRAD.:     5.901 HEAT: -40.60964
 CYCLE:   156 TIME:   0.070 TIME LEFT:  2.00D  GRAD.:     4.320 HEAT: -40.62692
 CYCLE:   157 TIME:   0.070 TIME LEFT:  2.00D  GRAD.:     7.860 HEAT: -40.63670
 CYCLE:   158 TIME:   0.070 TIME LEFT:  2.00D  GRAD.:    18.117 HEAT: -40.61805
 CYCLE:   159 TIME:   0.062 TIME LEFT:  2.00D  GRAD.:     7.170 HEAT: -40.68686
 CYCLE:   160 TIME:   0.070 TIME LEFT:  2.00D  GRAD.:     6.564 HEAT: -40.70408
 CYCLE:   161 TIME:   0.062 TIME LEFT:  2.00D  GRAD.:     3.933 HEAT: -40.72774
 CYCLE:   162 TIME:   0.070 TIME LEFT:  2.00D  GRAD.:     4.990 HEAT: -40.76470
 CYCLE:   163 TIME:   0.078 TIME LEFT:  2.00D  GRAD.:     6.200 HEAT: -40.79264
 CYCLE:   164 TIME:   0.078 TIME LEFT:  2.00D  GRAD.:    28.099 HEAT: -40.65955
 CYCLE:   165 TIME:   0.062 TIME LEFT:  2.00D  GRAD.:     4.392 HEAT: -40.83689
 CYCLE:   166 TIME:   0.070 TIME LEFT:  2.00D  GRAD.:     4.554 HEAT: -40.85089
 CYCLE:   167 TIME:   0.070 TIME LEFT:  2.00D  GRAD.:    10.248 HEAT: -40.83366
 CYCLE:   168 TIME:   0.078 TIME LEFT:  2.00D  GRAD.:    39.029 HEAT: -40.64330
 CYCLE:   169 TIME:   0.062 TIME LEFT:  2.00D  GRAD.:    19.345 HEAT: -40.81397
 CYCLE:   170 TIME:   0.078 TIME LEFT:  2.00D  GRAD.:     6.122 HEAT: -40.90126
 CYCLE:   171 TIME:   0.062 TIME LEFT:  2.00D  GRAD.:     5.266 HEAT: -40.90911
 CYCLE:   172 TIME:   0.062 TIME LEFT:  2.00D  GRAD.:     3.964 HEAT: -40.92754
 CYCLE:   173 TIME:   0.078 TIME LEFT:  2.00D  GRAD.:    18.889 HEAT: -40.91404
 CYCLE:   174 TIME:   0.070 TIME LEFT:  2.00D  GRAD.:     7.121 HEAT: -41.00607
 CYCLE:   175 TIME:   0.070 TIME LEFT:  2.00D  GRAD.:     5.766 HEAT: -41.03534
 CYCLE:   176 TIME:   0.070 TIME LEFT:  2.00D  GRAD.:    10.674 HEAT: -41.07679
 CYCLE:   177 TIME:   0.070 TIME LEFT:  2.00D  GRAD.:     6.916 HEAT: -41.12495
 CYCLE:   178 TIME:   0.078 TIME LEFT:  2.00D  GRAD.:    14.111 HEAT: -41.15849
 CYCLE:   179 TIME:   0.070 TIME LEFT:  2.00D  GRAD.:    44.391 HEAT: -40.92170
 CYCLE:   180 TIME:   0.070 TIME LEFT:  2.00D  GRAD.:     4.161 HEAT: -41.22027
 CYCLE:   181 TIME:   0.078 TIME LEFT:  2.00D  GRAD.:     6.651 HEAT: -41.25005
 CYCLE:   182 TIME:   0.062 TIME LEFT:  2.00D  GRAD.:     5.923 HEAT: -41.29872
 CYCLE:   183 TIME:   0.078 TIME LEFT:  2.00D  GRAD.:    10.846 HEAT: -41.33090
 CYCLE:   184 TIME:   0.070 TIME LEFT:  2.00D  GRAD.:    22.451 HEAT: -41.32051
 CYCLE:   185 TIME:   0.070 TIME LEFT:  2.00D  GRAD.:    11.690 HEAT: -41.40116
 CYCLE:   186 TIME:   0.062 TIME LEFT:  2.00D  GRAD.:     3.967 HEAT: -41.44970
 CYCLE:   187 TIME:   0.078 TIME LEFT:  2.00D  GRAD.:    10.179 HEAT: -41.45409
 CYCLE:   188 TIME:   0.062 TIME LEFT:  2.00D  GRAD.:     7.414 HEAT: -41.50226
 CYCLE:   189 TIME:   0.062 TIME LEFT:  2.00D  GRAD.:     6.918 HEAT: -41.53819
 CYCLE:   190 TIME:   0.070 TIME LEFT:  2.00D  GRAD.:     5.572 HEAT: -41.58698
 CYCLE:   191 TIME:   0.078 TIME LEFT:  2.00D  GRAD.:    12.629 HEAT: -41.62092
 CYCLE:   192 TIME:   0.078 TIME LEFT:  2.00D  GRAD.:    24.425 HEAT: -41.57571
 CYCLE:   193 TIME:   0.070 TIME LEFT:  2.00D  GRAD.:     6.802 HEAT: -41.70736
 CYCLE:   194 TIME:   0.070 TIME LEFT:  2.00D  GRAD.:     5.231 HEAT: -41.75636
 CYCLE:   195 TIME:   0.078 TIME LEFT:  2.00D  GRAD.:     6.748 HEAT: -41.83036
 CYCLE:   196 TIME:   0.070 TIME LEFT:  2.00D  GRAD.:    18.262 HEAT: -41.87496
 CYCLE:   197 TIME:   0.062 TIME LEFT:  2.00D  GRAD.:     6.789 HEAT: -41.93337
 CYCLE:   198 TIME:   0.070 TIME LEFT:  2.00D  GRAD.:     8.763 HEAT: -41.96212
 CYCLE:   199 TIME:   0.078 TIME LEFT:  2.00D  GRAD.:    15.567 HEAT: -41.93813
 CYCLE:   200 TIME:   0.070 TIME LEFT:  2.00D  GRAD.:    35.467 HEAT: -41.86364
 CYCLE:   201 TIME:   0.062 TIME LEFT:  2.00D  GRAD.:     6.514 HEAT: -42.06318
 CYCLE:   202 TIME:   0.062 TIME LEFT:  2.00D  GRAD.:     4.629 HEAT: -42.08467
 CYCLE:   203 TIME:   0.078 TIME LEFT:  2.00D  GRAD.:    17.047 HEAT: -42.11011
 CYCLE:   204 TIME:   0.078 TIME LEFT:  2.00D  GRAD.:     8.972 HEAT: -42.16825
 CYCLE:   205 TIME:   0.070 TIME LEFT:  2.00D  GRAD.:     6.791 HEAT: -42.20874
 CYCLE:   206 TIME:   0.062 TIME LEFT:  2.00D  GRAD.:     7.494 HEAT: -42.25688
 CYCLE:   207 TIME:   0.078 TIME LEFT:  2.00D  GRAD.:    16.114 HEAT: -42.21948
 CYCLE:   208 TIME:   0.070 TIME LEFT:  2.00D  GRAD.:    30.830 HEAT: -42.11773
 CYCLE:   209 TIME:   0.070 TIME LEFT:  2.00D  GRAD.:    23.508 HEAT: -42.25700
 CYCLE:   210 TIME:   0.070 TIME LEFT:  2.00D  GRAD.:     5.767 HEAT: -42.40019
 CYCLE:   211 TIME:   0.062 TIME LEFT:  2.00D  GRAD.:     5.539 HEAT: -42.42162
 CYCLE:   212 TIME:   0.070 TIME LEFT:  2.00D  GRAD.:     6.808 HEAT: -42.44048
 CYCLE:   213 TIME:   0.078 TIME LEFT:  2.00D  GRAD.:    18.986 HEAT: -42.40256
 CYCLE:   214 TIME:   0.070 TIME LEFT:  2.00D  GRAD.:    12.031 HEAT: -42.57084
 CYCLE:   215 TIME:   0.062 TIME LEFT:  2.00D  GRAD.:    12.368 HEAT: -42.61131
 CYCLE:   216 TIME:   0.070 TIME LEFT:  2.00D  GRAD.:     5.356 HEAT: -42.66123
 CYCLE:   217 TIME:   0.203 TIME LEFT:  2.00D  GRAD.:     8.170 HEAT: -42.70888
 CYCLE:   218 TIME:   0.062 TIME LEFT:  2.00D  GRAD.:     6.703 HEAT: -42.74296
 CYCLE:   219 TIME:   0.078 TIME LEFT:  2.00D  GRAD.:    13.311 HEAT: -42.73250
 CYCLE:   220 TIME:   0.070 TIME LEFT:  2.00D  GRAD.:    13.830 HEAT: -42.78666
 CYCLE:   221 TIME:   0.070 TIME LEFT:  2.00D  GRAD.:    13.667 HEAT: -42.81752
 CYCLE:   222 TIME:   0.062 TIME LEFT:  2.00D  GRAD.:     3.937 HEAT: -42.84873
 CYCLE:   223 TIME:   0.062 TIME LEFT:  2.00D  GRAD.:     3.960 HEAT: -42.85993
 CYCLE:   224 TIME:   0.078 TIME LEFT:  2.00D  GRAD.:    15.539 HEAT: -42.80260
 CYCLE:   225 TIME:   0.070 TIME LEFT:  2.00D  GRAD.:     7.964 HEAT: -42.90905
 CYCLE:   226 TIME:   0.062 TIME LEFT:  2.00D  GRAD.:    14.834 HEAT: -42.90633
 CYCLE:   227 TIME:   0.062 TIME LEFT:  2.00D  GRAD.:     5.096 HEAT: -42.94285
 CYCLE:   228 TIME:   0.062 TIME LEFT:  2.00D  GRAD.:     3.173 HEAT: -42.96348
 CYCLE:   229 TIME:   0.078 TIME LEFT:  2.00D  GRAD.:    11.938 HEAT: -42.98985
 CYCLE:   230 TIME:   0.062 TIME LEFT:  2.00D  GRAD.:     6.777 HEAT: -43.02012
 CYCLE:   231 TIME:   0.078 TIME LEFT:  2.00D  GRAD.:     4.862 HEAT: -43.05833
 CYCLE:   232 TIME:   0.078 TIME LEFT:  2.00D  GRAD.:     8.936 HEAT: -43.08945
 CYCLE:   233 TIME:   0.070 TIME LEFT:  2.00D  GRAD.:     7.680 HEAT: -43.12221
 CYCLE:   234 TIME:   0.078 TIME LEFT:  2.00D  GRAD.:    14.491 HEAT: -43.13492
 CYCLE:   235 TIME:   0.070 TIME LEFT:  2.00D  GRAD.:    58.502 HEAT: -42.61324
 CYCLE:   236 TIME:   0.070 TIME LEFT:  2.00D  GRAD.:   156.218 HEAT: -38.26088
 CYCLE:   237 TIME:   0.078 TIME LEFT:  2.00D  GRAD.:    37.177 HEAT: -42.82340
 CYCLE:   238 TIME:   0.070 TIME LEFT:  2.00D  GRAD.:    10.878 HEAT: -43.19399
 CYCLE:   239 TIME:   0.078 TIME LEFT:  2.00D  GRAD.:   182.034 HEAT: -37.58560
 CYCLE:   240 TIME:   0.070 TIME LEFT:  2.00D  GRAD.:    17.091 HEAT: -43.16571
 CYCLE:   241 TIME:   0.078 TIME LEFT:  2.00D  GRAD.:    27.326 HEAT: -43.06225
 CYCLE:   242 TIME:   0.078 TIME LEFT:  2.00D  GRAD.:    29.269 HEAT: -43.03696
 CYCLE:   243 TIME:   0.086 TIME LEFT:  2.00D  GRAD.:    32.350 HEAT: -42.70160
 CYCLE:   244 TIME:   0.078 TIME LEFT:  2.00D  GRAD.:    19.237 HEAT: -43.14257
 CYCLE:   245 TIME:   0.070 TIME LEFT:  2.00D  GRAD.:    23.632 HEAT: -43.24905
 CYCLE:   246 TIME:   0.070 TIME LEFT:  2.00D  GRAD.:     9.260 HEAT: -43.34761
 CYCLE:   247 TIME:   0.070 TIME LEFT:  2.00D  GRAD.:     8.188 HEAT: -43.39274
 CYCLE:   248 TIME:   0.078 TIME LEFT:  2.00D  GRAD.:    14.272 HEAT: -43.38180
 CYCLE:   249 TIME:   0.070 TIME LEFT:  2.00D  GRAD.:    34.458 HEAT: -43.34774
 CYCLE:   250 TIME:   0.094 TIME LEFT:  2.00D  GRAD.:     8.369 HEAT: -43.53559
 CYCLE:   251 TIME:   0.062 TIME LEFT:  2.00D  GRAD.:     5.011 HEAT: -43.56246
 CYCLE:   252 TIME:   0.078 TIME LEFT:  2.00D  GRAD.:    11.300 HEAT: -43.54870
 CYCLE:   253 TIME:   0.070 TIME LEFT:  2.00D  GRAD.:     8.922 HEAT: -43.62236
 CYCLE:   254 TIME:   0.070 TIME LEFT:  2.00D  GRAD.:     9.290 HEAT: -43.61974
 CYCLE:   255 TIME:   0.062 TIME LEFT:  2.00D  GRAD.:     3.393 HEAT: -43.64966
 CYCLE:   256 TIME:   0.078 TIME LEFT:  2.00D  GRAD.:    28.348 HEAT: -43.50726
 CYCLE:   257 TIME:   0.078 TIME LEFT:  2.00D  GRAD.:     6.583 HEAT: -43.68659
 CYCLE:   258 TIME:   0.062 TIME LEFT:  2.00D  GRAD.:     5.545 HEAT: -43.70436
 CYCLE:   259 TIME:   0.062 TIME LEFT:  2.00D  GRAD.:     8.075 HEAT: -43.78373
 CYCLE:   260 TIME:   0.078 TIME LEFT:  2.00D  GRAD.:    14.195 HEAT: -43.79581
 CYCLE:   261 TIME:   0.062 TIME LEFT:  2.00D  GRAD.:    13.033 HEAT: -43.86552
 CYCLE:   262 TIME:   0.070 TIME LEFT:  2.00D  GRAD.:     5.059 HEAT: -43.90112
 CYCLE:   263 TIME:   0.070 TIME LEFT:  2.00D  GRAD.:     4.159 HEAT: -43.92181
 CYCLE:   264 TIME:   0.070 TIME LEFT:  2.00D  GRAD.:    14.399 HEAT: -43.89386
 CYCLE:   265 TIME:   0.070 TIME LEFT:  2.00D  GRAD.:     9.173 HEAT: -43.96312
 CYCLE:   266 TIME:   0.062 TIME LEFT:  2.00D  GRAD.:    11.000 HEAT: -43.97103
 CYCLE:   267 TIME:   0.086 TIME LEFT:  2.00D  GRAD.:     4.095 HEAT: -43.99984
 CYCLE:   268 TIME:   0.070 TIME LEFT:  2.00D  GRAD.:     4.815 HEAT: -44.01423
 CYCLE:   269 TIME:   0.078 TIME LEFT:  2.00D  GRAD.:     6.680 HEAT: -44.01521
 CYCLE:   270 TIME:   0.070 TIME LEFT:  2.00D  GRAD.:    10.904 HEAT: -44.06461
 CYCLE:   271 TIME:   0.062 TIME LEFT:  2.00D  GRAD.:    12.592 HEAT: -44.08171
 CYCLE:   272 TIME:   0.062 TIME LEFT:  2.00D  GRAD.:     4.227 HEAT: -44.11506
 CYCLE:   273 TIME:   0.070 TIME LEFT:  2.00D  GRAD.:     4.728 HEAT: -44.12960
 CYCLE:   274 TIME:   0.070 TIME LEFT:  2.00D  GRAD.:     7.713 HEAT: -44.13443
 CYCLE:   275 TIME:   0.070 TIME LEFT:  2.00D  GRAD.:     9.735 HEAT: -44.15821
 CYCLE:   276 TIME:   0.062 TIME LEFT:  2.00D  GRAD.:     4.375 HEAT: -44.18034
 CYCLE:   277 TIME:   0.062 TIME LEFT:  2.00D  GRAD.:     3.782 HEAT: -44.19114
 CYCLE:   278 TIME:   0.070 TIME LEFT:  2.00D  GRAD.:     8.432 HEAT: -44.20132
 CYCLE:   279 TIME:   0.078 TIME LEFT:  2.00D  GRAD.:    21.415 HEAT: -44.13383
 CYCLE:   280 TIME:   0.070 TIME LEFT:  2.00D  GRAD.:     2.833 HEAT: -44.22782
 CYCLE:   281 TIME:   0.070 TIME LEFT:  2.00D  GRAD.:     5.061 HEAT: -44.22755
 CYCLE:   282 TIME:   0.070 TIME LEFT:  2.00D  GRAD.:     4.106 HEAT: -44.26184
 CYCLE:   283 TIME:   0.070 TIME LEFT:  2.00D  GRAD.:     7.500 HEAT: -44.27746
 CYCLE:   284 TIME:   0.062 TIME LEFT:  2.00D  GRAD.:     4.251 HEAT: -44.29679
 CYCLE:   285 TIME:   0.062 TIME LEFT:  2.00D  GRAD.:     4.357 HEAT: -44.31379
 CYCLE:   286 TIME:   0.078 TIME LEFT:  2.00D  GRAD.:     8.198 HEAT: -44.32229
 CYCLE:   287 TIME:   0.070 TIME LEFT:  2.00D  GRAD.:    10.840 HEAT: -44.33332
 CYCLE:   288 TIME:   0.062 TIME LEFT:  2.00D  GRAD.:     2.868 HEAT: -44.35269
 CYCLE:   289 TIME:   0.062 TIME LEFT:  2.00D  GRAD.:     2.285 HEAT: -44.35832
 CYCLE:   290 TIME:   0.062 TIME LEFT:  2.00D  GRAD.:     3.981 HEAT: -44.37310
 CYCLE:   291 TIME:   0.070 TIME LEFT:  2.00D  GRAD.:     4.708 HEAT: -44.38703
 CYCLE:   292 TIME:   0.070 TIME LEFT:  2.00D  GRAD.:     6.624 HEAT: -44.40053
 CYCLE:   293 TIME:   0.062 TIME LEFT:  2.00D  GRAD.:     7.397 HEAT: -44.40864
 CYCLE:   294 TIME:   0.062 TIME LEFT:  2.00D  GRAD.:     3.485 HEAT: -44.41965
 CYCLE:   295 TIME:   0.070 TIME LEFT:  2.00D  GRAD.:     2.000 HEAT: -44.42414
 CYCLE:   296 TIME:   0.062 TIME LEFT:  2.00D  GRAD.:     2.474 HEAT: -44.43164
 CYCLE:   297 TIME:   0.070 TIME LEFT:  2.00D  GRAD.:     5.227 HEAT: -44.44165
 CYCLE:   298 TIME:   0.070 TIME LEFT:  2.00D  GRAD.:    12.229 HEAT: -44.42426
 CYCLE:   299 TIME:   0.070 TIME LEFT:  2.00D  GRAD.:     2.155 HEAT: -44.44989
 CYCLE:   300 TIME:   0.070 TIME LEFT:  2.00D  GRAD.:     1.756 HEAT: -44.45238
 CYCLE:   301 TIME:   0.070 TIME LEFT:  2.00D  GRAD.:     2.083 HEAT: -44.45607
 CYCLE:   302 TIME:   0.070 TIME LEFT:  2.00D  GRAD.:     5.604 HEAT: -44.45756
 CYCLE:   303 TIME:   0.070 TIME LEFT:  2.00D  GRAD.:     2.218 HEAT: -44.46330
 CYCLE:   304 TIME:   0.070 TIME LEFT:  2.00D  GRAD.:     1.510 HEAT: -44.46603
 CYCLE:   305 TIME:   0.070 TIME LEFT:  2.00D  GRAD.:     2.073 HEAT: -44.46842
 CYCLE:   306 TIME:   0.062 TIME LEFT:  2.00D  GRAD.:     2.567 HEAT: -44.47298
 CYCLE:   307 TIME:   0.070 TIME LEFT:  2.00D  GRAD.:     4.946 HEAT: -44.48069
 CYCLE:   308 TIME:   0.062 TIME LEFT:  2.00D  GRAD.:     3.298 HEAT: -44.48735
 CYCLE:   309 TIME:   0.070 TIME LEFT:  2.00D  GRAD.:     2.329 HEAT: -44.49162
 CYCLE:   310 TIME:   0.062 TIME LEFT:  2.00D  GRAD.:     3.218 HEAT: -44.49717
 CYCLE:   311 TIME:   0.062 TIME LEFT:  2.00D  GRAD.:     2.692 HEAT: -44.50125
 CYCLE:   312 TIME:   0.062 TIME LEFT:  2.00D  GRAD.:     2.470 HEAT: -44.50836
 CYCLE:   313 TIME:   0.070 TIME LEFT:  2.00D  GRAD.:     2.685 HEAT: -44.51622
 CYCLE:   314 TIME:   0.070 TIME LEFT:  2.00D  GRAD.:     4.936 HEAT: -44.52114
 CYCLE:   315 TIME:   0.078 TIME LEFT:  2.00D  GRAD.:     3.961 HEAT: -44.52678
 CYCLE:   316 TIME:   0.062 TIME LEFT:  2.00D  GRAD.:     2.321 HEAT: -44.53505
 CYCLE:   317 TIME:   0.062 TIME LEFT:  2.00D  GRAD.:     3.464 HEAT: -44.53752
 CYCLE:   318 TIME:   0.070 TIME LEFT:  2.00D  GRAD.:     2.381 HEAT: -44.54204
 CYCLE:   319 TIME:   0.070 TIME LEFT:  2.00D  GRAD.:     2.942 HEAT: -44.54377
 CYCLE:   320 TIME:   0.070 TIME LEFT:  2.00D  GRAD.:     2.714 HEAT: -44.54840
 CYCLE:   321 TIME:   0.070 TIME LEFT:  2.00D  GRAD.:     2.875 HEAT: -44.55289
 CYCLE:   322 TIME:   0.062 TIME LEFT:  2.00D  GRAD.:     1.426 HEAT: -44.55602
 CYCLE:   323 TIME:   0.078 TIME LEFT:  2.00D  GRAD.:     2.401 HEAT: -44.55929
 CYCLE:   324 TIME:   0.062 TIME LEFT:  2.00D  GRAD.:     4.300 HEAT: -44.56072
 CYCLE:   325 TIME:   0.062 TIME LEFT:  2.00D  GRAD.:     1.917 HEAT: -44.56358
 CYCLE:   326 TIME:   0.062 TIME LEFT:  2.00D  GRAD.:     1.282 HEAT: -44.56617
 CYCLE:   327 TIME:   0.062 TIME LEFT:  2.00D  GRAD.:     1.568 HEAT: -44.56829
 CYCLE:   328 TIME:   0.070 TIME LEFT:  2.00D  GRAD.:     2.140 HEAT: -44.57241
 CYCLE:   329 TIME:   0.070 TIME LEFT:  2.00D  GRAD.:     6.625 HEAT: -44.56918
 CYCLE:   330 TIME:   0.062 TIME LEFT:  2.00D  GRAD.:     1.402 HEAT: -44.57687
 CYCLE:   331 TIME:   0.062 TIME LEFT:  2.00D  GRAD.:     1.153 HEAT: -44.57784
 CYCLE:   332 TIME:   0.070 TIME LEFT:  2.00D  GRAD.:     1.762 HEAT: -44.58097
 CYCLE:   333 TIME:   0.062 TIME LEFT:  2.00D  GRAD.:     4.071 HEAT: -44.58496
 CYCLE:   334 TIME:   0.070 TIME LEFT:  2.00D  GRAD.:     3.081 HEAT: -44.58959
 CYCLE:   335 TIME:   0.070 TIME LEFT:  2.00D  GRAD.:     2.736 HEAT: -44.59190
 CYCLE:   336 TIME:   0.070 TIME LEFT:  2.00D  GRAD.:     4.640 HEAT: -44.59823
 CYCLE:   337 TIME:   0.062 TIME LEFT:  2.00D  GRAD.:     3.034 HEAT: -44.60532
 CYCLE:   338 TIME:   0.062 TIME LEFT:  2.00D  GRAD.:     3.666 HEAT: -44.60688
 CYCLE:   339 TIME:   0.070 TIME LEFT:  2.00D  GRAD.:    10.687 HEAT: -44.60781
 CYCLE:   340 TIME:   0.062 TIME LEFT:  2.00D  GRAD.:    12.526 HEAT: -44.60718
 CYCLE:   341 TIME:   0.070 TIME LEFT:  2.00D  GRAD.:     7.129 HEAT: -44.62399
 CYCLE:   342 TIME:   0.062 TIME LEFT:  2.00D  GRAD.:    10.955 HEAT: -44.61857
 CYCLE:   343 TIME:   0.062 TIME LEFT:  2.00D  GRAD.:     2.535 HEAT: -44.63333
 CYCLE:   344 TIME:   0.078 TIME LEFT:  2.00D  GRAD.:     2.689 HEAT: -44.63616
 CYCLE:   345 TIME:   0.070 TIME LEFT:  2.00D  GRAD.:     2.387 HEAT: -44.64200
 CYCLE:   346 TIME:   0.062 TIME LEFT:  2.00D  GRAD.:     2.764 HEAT: -44.64778
 CYCLE:   347 TIME:   0.070 TIME LEFT:  2.00D  GRAD.:     3.326 HEAT: -44.66077
 CYCLE:   348 TIME:   0.070 TIME LEFT:  2.00D  GRAD.:     8.504 HEAT: -44.66564
 CYCLE:   349 TIME:   0.070 TIME LEFT:  2.00D  GRAD.:     4.036 HEAT: -44.68512
 CYCLE:   350 TIME:   0.062 TIME LEFT:  2.00D  GRAD.:     3.809 HEAT: -44.68494
 CYCLE:   351 TIME:   0.070 TIME LEFT:  2.00D  GRAD.:     2.849 HEAT: -44.69492
 CYCLE:   352 TIME:   0.070 TIME LEFT:  2.00D  GRAD.:     6.961 HEAT: -44.68376
 CYCLE:   353 TIME:   0.070 TIME LEFT:  2.00D  GRAD.:     5.132 HEAT: -44.70595
 CYCLE:   354 TIME:   0.070 TIME LEFT:  2.00D  GRAD.:     3.124 HEAT: -44.70601
 CYCLE:   355 TIME:   0.062 TIME LEFT:  2.00D  GRAD.:     1.937 HEAT: -44.71396
 CYCLE:   356 TIME:   0.070 TIME LEFT:  2.00D  GRAD.:     4.624 HEAT: -44.71120
 CYCLE:   357 TIME:   0.070 TIME LEFT:  2.00D  GRAD.:     3.213 HEAT: -44.72299
 CYCLE:   358 TIME:   0.078 TIME LEFT:  2.00D  GRAD.:     3.466 HEAT: -44.72468
 CYCLE:   359 TIME:   0.078 TIME LEFT:  2.00D  GRAD.:     2.398 HEAT: -44.73175
 CYCLE:   360 TIME:   0.078 TIME LEFT:  2.00D  GRAD.:     2.016 HEAT: -44.73588
 CYCLE:   361 TIME:   0.070 TIME LEFT:  2.00D  GRAD.:     3.773 HEAT: -44.73834
 CYCLE:   362 TIME:   0.062 TIME LEFT:  2.00D  GRAD.:     2.346 HEAT: -44.74390
 CYCLE:   363 TIME:   0.070 TIME LEFT:  2.00D  GRAD.:     4.594 HEAT: -44.74248
 CYCLE:   364 TIME:   0.070 TIME LEFT:  2.00D  GRAD.:     1.790 HEAT: -44.75241
 CYCLE:   365 TIME:   0.070 TIME LEFT:  2.00D  GRAD.:     2.964 HEAT: -44.75038
 CYCLE:   366 TIME:   0.062 TIME LEFT:  2.00D  GRAD.:     1.249 HEAT: -44.75398
 CYCLE:   367 TIME:   0.078 TIME LEFT:  2.00D  GRAD.:     1.952 HEAT: -44.75717
 CYCLE:   368 TIME:   0.062 TIME LEFT:  2.00D  GRAD.:     2.042 HEAT: -44.76099
 CYCLE:   369 TIME:   0.070 TIME LEFT:  2.00D  GRAD.:     3.751 HEAT: -44.76940
 CYCLE:   370 TIME:   0.062 TIME LEFT:  2.00D  GRAD.:     7.198 HEAT: -44.76675
 CYCLE:   371 TIME:   0.062 TIME LEFT:  2.00D  GRAD.:     1.395 HEAT: -44.77423
 CYCLE:   372 TIME:   0.062 TIME LEFT:  2.00D  GRAD.:     1.241 HEAT: -44.77527
 CYCLE:   373 TIME:   0.078 TIME LEFT:  2.00D  GRAD.:     5.564 HEAT: -44.77703
 CYCLE:   374 TIME:   0.070 TIME LEFT:  2.00D  GRAD.:     6.045 HEAT: -44.77470
 CYCLE:   375 TIME:   0.062 TIME LEFT:  2.00D  GRAD.:     1.717 HEAT: -44.78241
 CYCLE:   376 TIME:   0.078 TIME LEFT:  2.00D  GRAD.:     4.024 HEAT: -44.78447
 CYCLE:   377 TIME:   0.062 TIME LEFT:  2.00D  GRAD.:     1.281 HEAT: -44.78845
 CYCLE:   378 TIME:   0.078 TIME LEFT:  2.00D  GRAD.:     1.649 HEAT: -44.78843
 CYCLE:   379 TIME:   0.070 TIME LEFT:  2.00D  GRAD.:     1.388 HEAT: -44.79131
 CYCLE:   380 TIME:   0.070 TIME LEFT:  2.00D  GRAD.:     2.042 HEAT: -44.80096
 CYCLE:   381 TIME:   0.070 TIME LEFT:  2.00D  GRAD.:    15.862 HEAT: -44.76892
 CYCLE:   382 TIME:   0.062 TIME LEFT:  2.00D  GRAD.:     1.312 HEAT: -44.80298
 CYCLE:   383 TIME:   0.070 TIME LEFT:  2.00D  GRAD.:     1.287 HEAT: -44.80477
 CYCLE:   384 TIME:   0.070 TIME LEFT:  2.00D  GRAD.:     1.884 HEAT: -44.80923
 CYCLE:   385 TIME:   0.070 TIME LEFT:  2.00D  GRAD.:     3.131 HEAT: -44.81250
 CYCLE:   386 TIME:   0.070 TIME LEFT:  2.00D  GRAD.:     1.834 HEAT: -44.81538
 CYCLE:   387 TIME:   0.070 TIME LEFT:  2.00D  GRAD.:     1.727 HEAT: -44.81772
 CYCLE:   388 TIME:   0.070 TIME LEFT:  2.00D  GRAD.:     2.803 HEAT: -44.81975
 CYCLE:   389 TIME:   0.070 TIME LEFT:  2.00D  GRAD.:     1.646 HEAT: -44.82194
 CYCLE:   390 TIME:   0.070 TIME LEFT:  2.00D  GRAD.:     1.536 HEAT: -44.82310
 CYCLE:   391 TIME:   0.062 TIME LEFT:  2.00D  GRAD.:     1.372 HEAT: -44.82498
 CYCLE:   392 TIME:   0.078 TIME LEFT:  2.00D  GRAD.:     2.729 HEAT: -44.82759
 CYCLE:   393 TIME:   0.062 TIME LEFT:  2.00D  GRAD.:     7.007 HEAT: -44.82073
 CYCLE:   394 TIME:   0.070 TIME LEFT:  2.00D  GRAD.:     1.168 HEAT: -44.82916
 CYCLE:   395 TIME:   0.070 TIME LEFT:  2.00D  GRAD.:     1.808 HEAT: -44.83165
 CYCLE:   396 TIME:   0.070 TIME LEFT:  2.00D  GRAD.:     1.140 HEAT: -44.83365
 CYCLE:   397 TIME:   0.062 TIME LEFT:  2.00D  GRAD.:     1.729 HEAT: -44.83575
 CYCLE:   398 TIME:   0.070 TIME LEFT:  2.00D  GRAD.:     1.992 HEAT: -44.83873
 CYCLE:   399 TIME:   0.078 TIME LEFT:  2.00D  GRAD.:     1.905 HEAT: -44.84262
 CYCLE:   400 TIME:   0.070 TIME LEFT:  2.00D  GRAD.:     6.118 HEAT: -44.84302
 CYCLE:   401 TIME:   0.062 TIME LEFT:  2.00D  GRAD.:     1.613 HEAT: -44.84774
 CYCLE:   402 TIME:   0.070 TIME LEFT:  2.00D  GRAD.:     1.195 HEAT: -44.84946
 CYCLE:   403 TIME:   0.070 TIME LEFT:  2.00D  GRAD.:     2.251 HEAT: -44.85057
 CYCLE:   404 TIME:   0.070 TIME LEFT:  2.00D  GRAD.:     2.935 HEAT: -44.85273
 CYCLE:   405 TIME:   0.070 TIME LEFT:  2.00D  GRAD.:     2.237 HEAT: -44.85276
 CYCLE:   406 TIME:   0.070 TIME LEFT:  2.00D  GRAD.:     0.966 HEAT: -44.85492

 -------------------------------------------------------------------------------
 PM7 XYZ

 Lipophilicity_415 - geometry optimisation


     HERBERTS TEST WAS SATISFIED IN BFGS                      
     SCF FIELD WAS ACHIEVED                                   


                              PM7 CALCULATION
                                                       MOPAC v23.0.3 Linux
                                                       Fri Jul 25 19:45:01 2025




          FINAL HEAT OF FORMATION =        -44.85492 KCAL/MOL =    -187.67299 KJ/MOL


          COSMO AREA              =        547.71 SQUARE ANGSTROMS
          COSMO VOLUME            =        610.28 CUBIC ANGSTROMS

          GRADIENT NORM           =          0.96554          =       0.11709 PER ATOM
          IONIZATION POTENTIAL    =          8.641984 EV
          HOMO LUMO ENERGIES (EV) =         -8.642 -0.504
          NO. OF FILLED LEVELS    =         99
          MOLECULAR WEIGHT        =        523.5902         POINT GROUP:  C1  

          MOLECULAR DIMENSIONS (Angstroms)

            Atom       Atom       Distance
            H    65    H    51    24.37805
            H    47    H    40    10.20484
            H    59    H    52     4.40827


          SCF CALCULATIONS        =        407

          WALL-CLOCK TIME         =     28.117 SECONDS
          COMPUTATION TIME        =          9 MINUTES AND 20.616 SECONDS




   ATOM   CHEMICAL          X               Y               Z
  NUMBER   SYMBOL      (ANGSTROMS)     (ANGSTROMS)     (ANGSTROMS)

     1       C          1.11142429  *  -1.17985469  *   4.41324042  *
     2       C          0.01313118  *  -0.93822386  *   3.43427831  *
     3       C         -1.31226492  *  -1.13218511  *   3.81818045  *
     4       C         -2.36116834  *  -0.93181646  *   2.92776304  *
     5       C         -2.07702612  *  -0.50402671  *   1.62287270  *
     6       N         -3.16036988  *  -0.32845379  *   0.72578120  *
     7       C         -3.18315125  *   0.66360791  *  -0.25036657  *
     8       O         -2.29210285  *   1.46879372  *  -0.37986972  *
     9       C         -4.39102933  *   0.62812229  *  -1.13451778  *
    10       C         -4.19944389  *   0.75740801  *  -2.50748985  *
    11       C         -5.33250628  *   0.71309604  *  -3.32997544  *
    12       N         -6.57326144  *   0.52492337  *  -2.85707162  *
    13       C         -6.75619616  *   0.40851679  *  -1.50945236  *
    14       C         -5.66554870  *   0.47171086  *  -0.60750412  *
    15       N         -8.07706599  *   0.33366970  *  -1.05532143  *
    16       C         -9.13073618  *   0.22588123  *  -2.08923429  *
    17       C        -10.49091371  *   0.50678352  *  -1.42959347  *
    18       O        -10.71003986  *  -0.37931625  *  -0.34675425  *
    19       C         -9.72758784  *  -0.23793430  *   0.65895405  *
    20       C         -8.33296326  *  -0.56648161  *   0.09004662  *
    21       C         -0.75945158  *  -0.29073748  *   1.21192834  *
    22       C          0.28411120  *  -0.52647987  *   2.11169739  *
    23       N          1.62697780  *  -0.33385027  *   1.70752423  *
    24       C          2.07154210  *  -0.60235636  *   0.41029445  *
    25       O          1.32526498  *  -1.02717627  *  -0.44191268  *
    26       C          3.51382442  *  -0.35114761  *   0.16911017  *
    27       C          4.21504111  *  -1.29649824  *  -0.57928602  *
    28       C          5.55889640  *  -1.09683041  *  -0.88418048  *
    29       C          6.17474144  *   0.07297998  *  -0.43613794  *
    30       O          7.46952269  *   0.41501217  *  -0.64935698  *
    31       C          8.23555834  *  -0.43422743  *  -1.50848467  *
    32       C          9.56281631  *   0.26025128  *  -1.65531182  *
    33       C         10.00582516  *   1.23914476  *  -0.75832224  *
    34       C         11.25608954  *   1.81643997  *  -0.97557592  *
    35       C         12.02028381  *   1.40404366  *  -2.06439256  *
    36       C         11.49956537  *   0.41672519  *  -2.91246865  *
    37       N         10.29487633  *  -0.14556652  *  -2.71513064  *
    38       C          5.47832803  *   1.03892890  *   0.31265334  *
    39       C          4.14258220  *   0.81898625  *   0.60683028  *
    40       H          0.74136753  *  -1.60331195  *   5.35787616  *
    41       H          1.85147962  *  -1.89521032  *   4.02404015  *
    42       H          1.63536991  *  -0.24918690  *   4.67395798  *
    43       H         -1.53469384  *  -1.45121634  *   4.83658350  *
    44       H         -3.38560355  *  -1.09319947  *   3.24706548  *
    45       H         -3.94922110  *  -0.95359347  *   0.82985690  *
    46       H         -3.20469480  *   0.90006689  *  -2.92524022  *
    47       H         -5.25697181  *   0.81593116  *  -4.42073632  *
    48       H         -5.83445176  *   0.44543992  *   0.46292714  *
    49       H         -8.93375878  *   0.97280337  *  -2.89481814  *
    50       H         -9.12465426  *  -0.77460862  *  -2.57369406  *
    51       H        -11.33046434  *   0.27669252  *  -2.10990322  *
    52       H        -10.56735215  *   1.55080846  *  -1.07777007  *
    53       H        -10.04180076  *  -0.97265844  *   1.42158232  *
    54       H         -9.76484836  *   0.78227642  *   1.08069029  *
    55       H         -7.56582264  *  -0.41707171  *   0.87860602  *
    56       H         -8.29240722  *  -1.63419600  *  -0.22223163  *
    57       H         -0.54801470  *   0.05281422  *   0.19250027  *
    58       H          2.29562186  *  -0.09629287  *   2.42870596  *
    59       H          3.69953630  *  -2.19303227  *  -0.93617542  *
    60       H          6.09503564  *  -1.84005335  *  -1.46431579  *
    61       H          8.35549054  *  -1.42667626  *  -1.03056819  *
    62       H          7.72206977  *  -0.54167794  *  -2.48630525  *
    63       H          9.38571935  *   1.54274160  *   0.08241274  *
    64       H         11.63066459  *   2.58364102  *  -0.29813855  *
    65       H         12.99724564  *   1.83554896  *  -2.25776634  *
    66       H         12.05364783  *   0.05508652  *  -3.78654812  *
    67       H          5.99104481  *   1.94181131  *   0.63449749  *
    68       H          3.57802335  *   1.57066652  *   1.16192717  *

                             CARTESIAN COORDINATES

   1    C        1.111424293    -1.179854692     4.413240424
   2    C        0.013131178    -0.938223860     3.434278310
   3    C       -1.312264920    -1.132185112     3.818180454
   4    C       -2.361168339    -0.931816461     2.927763036
   5    C       -2.077026117    -0.504026714     1.622872705
   6    N       -3.160369884    -0.328453791     0.725781200
   7    C       -3.183151248     0.663607910    -0.250366568
   8    O       -2.292102855     1.468793719    -0.379869719
   9    C       -4.391029333     0.628122293    -1.134517779
  10    C       -4.199443888     0.757408013    -2.507489851
  11    C       -5.332506278     0.713096043    -3.329975439
  12    N       -6.573261438     0.524923370    -2.857071616
  13    C       -6.756196164     0.408516787    -1.509452361
  14    C       -5.665548698     0.471710860    -0.607504120
  15    N       -8.077065989     0.333669702    -1.055321432
  16    C       -9.130736181     0.225881235    -2.089234286
  17    C      -10.490913706     0.506783516    -1.429593469
  18    O      -10.710039856    -0.379316253    -0.346754255
  19    C       -9.727587839    -0.237934298     0.658954054
  20    C       -8.332963264    -0.566481606     0.090046620
  21    C       -0.759451576    -0.290737482     1.211928339
  22    C        0.284111195    -0.526479873     2.111697395
  23    N        1.626977800    -0.333850266     1.707524231
  24    C        2.071542099    -0.602356363     0.410294445
  25    O        1.325264977    -1.027176270    -0.441912681
  26    C        3.513824424    -0.351147612     0.169110170
  27    C        4.215041111    -1.296498241    -0.579286018
  28    C        5.558896401    -1.096830410    -0.884180475
  29    C        6.174741445     0.072979982    -0.436137936
  30    O        7.469522685     0.415012171    -0.649356979
  31    C        8.235558338    -0.434227428    -1.508484668
  32    C        9.562816309     0.260251281    -1.655311817
  33    C       10.005825164     1.239144756    -0.758322243
  34    C       11.256089542     1.816439970    -0.975575923
  35    C       12.020283807     1.404043657    -2.064392562
  36    C       11.499565369     0.416725192    -2.912468652
  37    N       10.294876331    -0.145566518    -2.715130638
  38    C        5.478328034     1.038928901     0.312653337
  39    C        4.142582198     0.818986251     0.606830278
  40    H        0.741367530    -1.603311946     5.357876160
  41    H        1.851479618    -1.895210324     4.024040151
  42    H        1.635369911    -0.249186903     4.673957976
  43    H       -1.534693841    -1.451216336     4.836583502
  44    H       -3.385603548    -1.093199469     3.247065483
  45    H       -3.949221095    -0.953593467     0.829856901
  46    H       -3.204694805     0.900066891    -2.925240218
  47    H       -5.256971807     0.815931158    -4.420736325
  48    H       -5.834451761     0.445439917     0.462927139
  49    H       -8.933758775     0.972803368    -2.894818136
  50    H       -9.124654265    -0.774608618    -2.573694065
  51    H      -11.330464344     0.276692523    -2.109903224
  52    H      -10.567352152     1.550808460    -1.077770068
  53    H      -10.041800759    -0.972658439     1.421582316
  54    H       -9.764848364     0.782276419     1.080690287
  55    H       -7.565822638    -0.417071713     0.878606020
  56    H       -8.292407217    -1.634196002    -0.222231626
  57    H       -0.548014695     0.052814222     0.192500267
  58    H        2.295621863    -0.096292872     2.428705959
  59    H        3.699536303    -2.193032269    -0.936175418
  60    H        6.095035640    -1.840053352    -1.464315787
  61    H        8.355490543    -1.426676263    -1.030568189
  62    H        7.722069768    -0.541677940    -2.486305252
  63    H        9.385719351     1.542741605     0.082412738
  64    H       11.630664589     2.583641020    -0.298138553
  65    H       12.997245637     1.835548958    -2.257766335
  66    H       12.053647833     0.055086520    -3.786548124
  67    H        5.991044811     1.941811311     0.634497486
  68    H        3.578023347     1.570666517     1.161927166


           Empirical Formula: C30 H29 N5 O4  =    68 atoms



      MOLECULAR POINT GROUP   :   C1  


                  EIGENVALUES  
 -37.10589 -37.01596 -36.95793 -36.12307 -35.28310 -31.37603 -30.77887 -30.60840
 -30.32253 -30.19324 -29.99524 -28.88414 -28.70215 -27.73329 -27.17408 -26.92447
 -26.55674 -26.37552 -26.36049 -25.34684 -25.00918 -24.61774 -24.30865 -23.27214
 -22.87110 -22.44857 -22.23254 -21.98287 -21.59995 -21.36564 -20.79719 -20.64202
 -20.41563 -20.14112 -19.74753 -18.82576 -18.63352 -18.09143 -17.93617 -17.50812
 -17.18224 -16.99276 -16.80336 -16.55451 -16.48530 -16.42502 -16.28993 -16.03127
 -15.95256 -15.89305 -15.77711 -15.60916 -15.42745 -15.39205 -15.32168 -15.18034
 -15.00382 -14.81121 -14.75309 -14.72301 -14.64316 -14.54308 -14.45341 -14.43545
 -14.16709 -14.03213 -13.97426 -13.82107 -13.65183 -13.48586 -13.44001 -13.38539
 -13.12680 -13.07870 -12.90906 -12.72867 -12.64728 -12.61435 -12.45732 -12.32795
 -12.18036 -12.08888 -11.68032 -11.30426 -11.17218 -11.04443 -10.96330 -10.75419
 -10.62468 -10.60720 -10.41582 -10.37095 -10.21579 -10.19606 -10.18380  -9.46427
  -9.09384  -8.80273  -8.64198  -0.50385  -0.40893  -0.37577  -0.29202  -0.18612
  -0.16639   0.14133   0.29534   1.21237   1.29446   1.44429   1.64958   1.84500
   1.91126   2.11123   2.21415   2.23985   2.38951   2.64121   2.95924   3.04171
   3.30180   3.33221   3.46244   3.47417   3.70350   3.76818   3.83785   3.89378
   3.99517   4.04707   4.05890   4.10103   4.14447   4.24829   4.30693   4.33944
   4.36217   4.50201   4.61021   4.64781   4.69696   4.72069   4.80893   4.81795
   4.88796   4.91873   4.95146   4.97872   5.02127   5.05033   5.10154   5.12956
   5.14572   5.26006   5.31147   5.36915   5.39345   5.40799   5.44379   5.44463
   5.46279   5.50973   5.55167   5.57067   5.58100   5.62767   5.66045   5.71362
   5.72158   5.73987   5.80244   5.84243   5.88997   5.91228   5.93342   6.01549
   6.02639   6.05560   6.08378   6.18520   6.24379   6.34604   6.42411   6.64797
   6.82571


              NET ATOMIC CHARGES AND DIPOLE CONTRIBUTIONS

  ATOM NO.   TYPE          CHARGE      No. of ELECS.   s-Pop       p-Pop       
    1          C          -0.436759        4.4368     1.04625     3.39051
    2          C          -0.087900        4.0879     1.05895     3.02895
    3          C          -0.107180        4.1072     1.08179     3.02539
    4          C          -0.269005        4.2690     1.07486     3.19415
    5          C           0.234001        3.7660     1.05108     2.71492
    6          N          -0.573398        5.5734     1.55097     4.02243
    7          C           0.572282        3.4277     1.07625     2.35147
    8          O          -0.460133        6.4601     1.88041     4.57973
    9          C           0.006583        3.9934     1.08154     2.91187
   10          C          -0.269887        4.2699     1.08273     3.18716
   11          C           0.115501        3.8845     1.09778     2.78672
   12          N          -0.471735        5.4717     1.74793     3.72380
   13          C           0.373425        3.6266     1.06279     2.56378
   14          C          -0.334729        4.3347     1.07493     3.25980
   15          N          -0.397206        5.3972     1.61382     3.78338
   16          C          -0.128952        4.1290     1.07486     3.05409
   17          C          -0.052635        4.0526     1.09236     2.96028
   18          O          -0.379246        6.3792     1.88096     4.49829
   19          C          -0.047704        4.0477     1.09112     2.95658
   20          C          -0.134063        4.1341     1.07547     3.05859
   21          C          -0.230917        4.2309     1.08429     3.14663
   22          C           0.216386        3.7836     1.05435     2.72926
   23          N          -0.578695        5.5787     1.55353     4.02517
   24          C           0.596075        3.4039     1.07451     2.32942
   25          O          -0.484759        6.4848     1.88011     4.60465
   26          C          -0.217165        4.2172     1.06586     3.15130
   27          C          -0.013470        4.0135     1.08980     2.92367
   28          C          -0.312549        4.3125     1.07433     3.23822
   29          C           0.291552        3.7084     1.08904     2.61941
   30          O          -0.342176        6.3422     1.86511     4.47706
   31          C          -0.054535        4.0545     1.09239     2.96214
   32          C           0.162702        3.8373     1.07797     2.75933
   33          C          -0.223222        4.2232     1.08734     3.13588
   34          C          -0.074937        4.0749     1.08908     2.98586
   35          C          -0.245412        4.2454     1.08740     3.15801
   36          C           0.063532        3.9365     1.09641     2.84006
   37          N          -0.392339        5.3923     1.74274     3.64960
   38          C          -0.259875        4.2599     1.07560     3.18427
   39          C          -0.051184        4.0512     1.08554     2.96564
   40          H           0.155155        0.8448     0.84485
   41          H           0.157462        0.8425     0.84254
   42          H           0.151402        0.8486     0.84860
   43          H           0.150445        0.8496     0.84955
   44          H           0.158705        0.8413     0.84129
   45          H           0.317810        0.6822     0.68219
   46          H           0.191176        0.8088     0.80882
   47          H           0.172538        0.8275     0.82746
   48          H           0.174341        0.8257     0.82566
   49          H           0.175730        0.8243     0.82427
   50          H           0.144602        0.8554     0.85540
   51          H           0.143889        0.8561     0.85611
   52          H           0.132610        0.8674     0.86739
   53          H           0.141893        0.8581     0.85811
   54          H           0.133958        0.8660     0.86604
   55          H           0.147499        0.8525     0.85250
   56          H           0.142220        0.8578     0.85778
   57          H           0.218842        0.7812     0.78116
   58          H           0.316051        0.6839     0.68395
   59          H           0.168618        0.8314     0.83138
   60          H           0.170048        0.8300     0.82995
   61          H           0.154404        0.8456     0.84560
   62          H           0.166314        0.8337     0.83369
   63          H           0.181354        0.8186     0.81865
   64          H           0.158394        0.8416     0.84161
   65          H           0.166865        0.8331     0.83314
   66          H           0.171715        0.8283     0.82828
   67          H           0.175752        0.8242     0.82425
   68          H           0.159932        0.8401     0.84007
 DIPOLE           X         Y         Z       TOTAL
 POINT-CHG.     2.380    -1.101     3.057     4.027
 HYBRID         0.830     0.102     1.116     1.395
 SUM            3.211    -0.999     4.172     5.359


          ATOMIC ORBITAL ELECTRON POPULATIONS

     Atom    s        px        py        pz   
    1  C   1.04625   1.10662   1.16608   1.11781
    2  C   1.05895   0.98214   1.06761   0.97920
    3  C   1.08179   0.97598   0.98467   1.06473
    4  C   1.07486   1.08073   1.11771   0.99570
    5  C   1.05108   0.87574   0.95330   0.88588
    6  N   1.55097   1.26376   1.38458   1.37409
    7  C   1.07625   0.83373   0.75430   0.76345
    8  O   1.88041   1.44476   1.43309   1.70188
    9  C   1.08154   0.97786   0.93818   0.99583
   10  C   1.08273   1.09137   1.09783   0.99796
   11  C   1.09778   0.86702   0.86534   1.05435
   12  N   1.74793   1.30196   1.23592   1.18592
   13  C   1.06279   0.84408   0.85900   0.86069
   14  C   1.07493   0.99124   1.17364   1.09491
   15  N   1.61382   1.08370   1.52170   1.17799
   16  C   1.07486   0.91218   1.16656   0.97535
   17  C   1.09236   1.02082   1.01530   0.92415
   18  O   1.88096   1.50435   1.63063   1.36330
   19  C   1.09112   0.88986   1.13345   0.93327
   20  C   1.07547   1.06616   1.02838   0.96405
   21  C   1.08429   0.96052   1.07214   1.11397
   22  C   1.05435   0.82063   0.95111   0.95752
   23  N   1.55353   1.15820   1.67384   1.19313
   24  C   1.07451   0.85114   0.72465   0.75363
   25  O   1.88011   1.61853   1.47377   1.51235
   26  C   1.06586   1.00181   1.03813   1.11136
   27  C   1.08980   0.98059   1.03000   0.91308
   28  C   1.07433   1.03874   1.06358   1.13590
   29  C   1.08904   0.79040   0.93799   0.89102
   30  O   1.86511   1.28920   1.53041   1.65745
   31  C   1.09239   0.93366   0.99982   1.02866
   32  C   1.07797   0.93616   0.93047   0.89270
   33  C   1.08734   1.03157   1.02796   1.07634
   34  C   1.08908   0.98151   1.00289   1.00146
   35  C   1.08740   1.08864   1.04655   1.02282
   36  C   1.09641   0.90743   0.92378   1.00885
   37  N   1.74274   1.12959   1.29484   1.22516
   38  C   1.07560   1.01426   1.08430   1.08571
   39  C   1.08554   0.99558   1.00537   0.96468
   40  H   0.84485
   41  H   0.84254
   42  H   0.84860
   43  H   0.84955
   44  H   0.84129
   45  H   0.68219
   46  H   0.80882
   47  H   0.82746
   48  H   0.82566
   49  H   0.82427
   50  H   0.85540
   51  H   0.85611
   52  H   0.86739
   53  H   0.85811
   54  H   0.86604
   55  H   0.85250
   56  H   0.85778
   57  H   0.78116
   58  H   0.68395
   59  H   0.83138
   60  H   0.82995
   61  H   0.84560
   62  H   0.83369
   63  H   0.81865
   64  H   0.84161
   65  H   0.83314
   66  H   0.82828
   67  H   0.82425
   68  H   0.84007

 **********************
 *                    *
 * JOB ENDED NORMALLY *
 *                    *
 **********************



 TOTAL JOB TIME:            28.12 SECONDS

 == MOPAC DONE ==
