 *******************************************************************************
 **                                                                           **
 **                              MOPAC v23.0.3                                **
 **                                                                           **
 *******************************************************************************
 **          Digital Object Identifier (DOI): 10.5281/zenodo.6511958          **
 **    Visit the DOI location for information on how to cite this program.    **
 *******************************************************************************

                              PM7 CALCULATION RESULTS

 *******************************************************************************
 *  CALCULATION DONE:                                Fri Jul 25 19:22:58 2025  *
 *  PM7        - The PM7 Hamiltonian to be used
 *  XYZ        - CARTESIAN COORDINATE SYSTEM TO BE USED
 *  T=         - A TIME OF 172800.0 SECONDS REQUESTED
 *  DUMP=N     - RESTART FILE WRITTEN EVERY 7200.0 SECONDS REQUESTED
 *******************************************************************************
PM7 XYZ

 Lipophilicity_292 - geometry optimisation
   ATOM   CHEMICAL          X               Y               Z
  NUMBER   SYMBOL      (ANGSTROMS)     (ANGSTROMS)     (ANGSTROMS)

     1       C         -3.00061500  *   1.47575000  *   0.43010700  *
     2       C         -3.90650100  *   0.29058100  *   0.21500300  *
     3       C         -5.10364400  *   0.22180100  *   0.94907800  *
     4       C         -5.99756300  *  -0.83262200  *   0.75547100  *
     5       C         -5.70779100  *  -1.83356400  *  -0.17039600  *
     6       C         -4.51470800  *  -1.79365600  *  -0.89376600  *
     7       C         -3.59167200  *  -0.75189000  *  -0.69641100  *
     8       C         -2.32746600  *  -0.77962900  *  -1.46404500  *
     9       O         -2.35994800  *  -1.03349600  *  -2.69918700  *
    10       N         -1.06935300  *  -0.56668700  *  -0.81013400  *
    11       C          0.16261700  *  -0.38068400  *  -1.58196600  *
    12       C          1.40172500  *  -0.06352600  *  -0.70173700  *
    13       C          1.72292800  *  -1.23900900  *   0.26763200  *
    14       C          2.98259500  *  -0.91078600  *   1.09967700  *
    15       C          2.74019500  *   0.37869600  *   1.91510400  *
    16       C          2.45019200  *   1.55398300  *   0.95547600  *
    17       C          3.65360600  *   1.75632900  *   0.01072600  *
    18       C          3.89094100  *   0.46789700  *  -0.80490800  *
    19       C          4.18524400  *  -0.70405100  *   0.15494500  *
    20       C          2.62975200  *   0.14671000  *  -1.63565300  *
    21       C          1.18748500  *   1.23969700  *   0.12303700  *
    22       H         -2.46488000  *   1.74657200  *  -0.50352100  *
    23       H         -3.58682100  *   2.36754900  *   0.73873900  *
    24       H         -2.26705200  *   1.24589200  *   1.23001300  *
    25       H         -5.35312200  *   0.99511100  *   1.66545300  *
    26       H         -6.92011200  *  -0.86996800  *   1.32036500  *
    27       H         -6.40549300  *  -2.64695300  *  -0.32272000  *
    28       H         -4.30070600  *  -2.59067900  *  -1.59577600  *
    29       H         -1.05586900  *  -0.56102800  *   0.23238800  *
    30       H          0.00611600  *   0.45354700  *  -2.30120800  *
    31       H          0.35569500  *  -1.30224300  *  -2.17401400  *
    32       H          1.89046400  *  -2.17637200  *  -0.30791500  *
    33       H          0.87872400  *  -1.42947600  *   0.96298500  *
    34       H          3.19808500  *  -1.75243600  *   1.79337100  *
    35       H          3.63387200  *   0.60809700  *   2.53620000  *
    36       H          1.88308900  *   0.23419100  *   2.60909300  *
    37       H          2.28349600  *   2.48134500  *   1.54558400  *
    38       H          4.56269600  *   2.00518700  *   0.60124200  *
    39       H          3.45964100  *   2.61041600  *  -0.67485500  *
    40       H          4.75692500  *   0.61505500  *  -1.48635900  *
    41       H          5.10155000  *  -0.48903400  *   0.74760000  *
    42       H          4.37672400  *  -1.63293700  *  -0.42610000  *
    43       H          2.43617200  *   0.98072600  *  -2.34673500  *
    44       H          2.81267600  *  -0.76692800  *  -2.24433100  *
    45       H          0.96654000  *   2.09257300  *  -0.55650300  *
    46       H          0.32357100  *   1.13995500  *   0.81313100  *



          CARTESIAN COORDINATES 

    NO.       ATOM           X           Y           Z

     1         C         -3.0006      1.4758      0.4301
     2         C         -3.9065      0.2906      0.2150
     3         C         -5.1036      0.2218      0.9491
     4         C         -5.9976     -0.8326      0.7555
     5         C         -5.7078     -1.8336     -0.1704
     6         C         -4.5147     -1.7937     -0.8938
     7         C         -3.5917     -0.7519     -0.6964
     8         C         -2.3275     -0.7796     -1.4640
     9         O         -2.3599     -1.0335     -2.6992
    10         N         -1.0694     -0.5667     -0.8101
    11         C          0.1626     -0.3807     -1.5820
    12         C          1.4017     -0.0635     -0.7017
    13         C          1.7229     -1.2390      0.2676
    14         C          2.9826     -0.9108      1.0997
    15         C          2.7402      0.3787      1.9151
    16         C          2.4502      1.5540      0.9555
    17         C          3.6536      1.7563      0.0107
    18         C          3.8909      0.4679     -0.8049
    19         C          4.1852     -0.7041      0.1549
    20         C          2.6298      0.1467     -1.6357
    21         C          1.1875      1.2397      0.1230
    22         H         -2.4649      1.7466     -0.5035
    23         H         -3.5868      2.3675      0.7387
    24         H         -2.2671      1.2459      1.2300
    25         H         -5.3531      0.9951      1.6655
    26         H         -6.9201     -0.8700      1.3204
    27         H         -6.4055     -2.6470     -0.3227
    28         H         -4.3007     -2.5907     -1.5958
    29         H         -1.0559     -0.5610      0.2324
    30         H          0.0061      0.4535     -2.3012
    31         H          0.3557     -1.3022     -2.1740
    32         H          1.8905     -2.1764     -0.3079
    33         H          0.8787     -1.4295      0.9630
    34         H          3.1981     -1.7524      1.7934
    35         H          3.6339      0.6081      2.5362
    36         H          1.8831      0.2342      2.6091
    37         H          2.2835      2.4813      1.5456
    38         H          4.5627      2.0052      0.6012
    39         H          3.4596      2.6104     -0.6749
    40         H          4.7569      0.6151     -1.4864
    41         H          5.1015     -0.4890      0.7476
    42         H          4.3767     -1.6329     -0.4261
    43         H          2.4362      0.9807     -2.3467
    44         H          2.8127     -0.7669     -2.2443
    45         H          0.9665      2.0926     -0.5565
    46         H          0.3236      1.1400      0.8131

 General Reference for PM7:
 "Optimization of Parameters for Semiempirical Methods VI: More Modifications to the 
 NDDO Approximations and Re-optimization of Parameters", J. J. P. Stewart, J. Mol. Mod., 1:32, 19 (2013)
 https://link.springer.com/article/10.1007/s00894-012-1667-x

           Empirical Formula: C19 H25 N O  =    46 atoms



      MOLECULAR POINT GROUP   :   C1  


      RHF CALCULATION, NO. OF DOUBLY OCCUPIED LEVELS = 56


          Geometry optimization using L-BFGS
 CYCLE:     1 TIME:   0.047 TIME LEFT:  2.00D  GRAD.:   141.010 HEAT: -46.12842
 CYCLE:     2 TIME:   0.023 TIME LEFT:  2.00D  GRAD.:   137.791 HEAT: -46.32496
 CYCLE:     3 TIME:   0.031 TIME LEFT:  2.00D  GRAD.:    42.769 HEAT: -51.14126
 CYCLE:     4 TIME:   0.023 TIME LEFT:  2.00D  GRAD.:   137.785 HEAT: -46.32465
 CYCLE:     5 TIME:   0.031 TIME LEFT:  2.00D  GRAD.:    42.727 HEAT: -51.14192
 CYCLE:     6 TIME:   0.023 TIME LEFT:  2.00D  GRAD.:    29.549 HEAT: -51.62089
 CYCLE:     7 TIME:   0.031 TIME LEFT:  2.00D  GRAD.:    16.962 HEAT: -52.35498
 CYCLE:     8 TIME:   0.023 TIME LEFT:  2.00D  GRAD.:    16.007 HEAT: -52.58421
 CYCLE:     9 TIME:   0.023 TIME LEFT:  2.00D  GRAD.:    14.057 HEAT: -52.79964
 CYCLE:    10 TIME:   0.031 TIME LEFT:  2.00D  GRAD.:    15.468 HEAT: -52.99647
 CYCLE:    11 TIME:   0.023 TIME LEFT:  2.00D  GRAD.:    15.000 HEAT: -53.23422
 CYCLE:    12 TIME:   0.023 TIME LEFT:  2.00D  GRAD.:    12.749 HEAT: -53.43853
 CYCLE:    13 TIME:   0.031 TIME LEFT:  2.00D  GRAD.:    10.713 HEAT: -53.61679
 CYCLE:    14 TIME:   0.023 TIME LEFT:  2.00D  GRAD.:    19.194 HEAT: -53.74263
 CYCLE:    15 TIME:   0.031 TIME LEFT:  2.00D  GRAD.:     9.549 HEAT: -53.86120
 CYCLE:    16 TIME:   0.117 TIME LEFT:  2.00D  GRAD.:     6.689 HEAT: -53.91495
 CYCLE:    17 TIME:   0.133 TIME LEFT:  2.00D  GRAD.:     7.226 HEAT: -53.96310
 CYCLE:    18 TIME:   0.023 TIME LEFT:  2.00D  GRAD.:     9.036 HEAT: -54.00977
 CYCLE:    19 TIME:   0.023 TIME LEFT:  2.00D  GRAD.:     6.202 HEAT: -54.05185
 CYCLE:    20 TIME:   0.031 TIME LEFT:  2.00D  GRAD.:     6.190 HEAT: -54.09775
 CYCLE:    21 TIME:   0.023 TIME LEFT:  2.00D  GRAD.:     7.353 HEAT: -54.11914
 CYCLE:    22 TIME:   0.023 TIME LEFT:  2.00D  GRAD.:     5.433 HEAT: -54.14281
 CYCLE:    23 TIME:   0.031 TIME LEFT:  2.00D  GRAD.:     5.130 HEAT: -54.17770
 CYCLE:    24 TIME:   0.023 TIME LEFT:  2.00D  GRAD.:     5.694 HEAT: -54.20855
 CYCLE:    25 TIME:   0.023 TIME LEFT:  2.00D  GRAD.:     8.272 HEAT: -54.24084
 CYCLE:    26 TIME:   0.023 TIME LEFT:  2.00D  GRAD.:     5.141 HEAT: -54.27780
 CYCLE:    27 TIME:   0.031 TIME LEFT:  2.00D  GRAD.:     4.265 HEAT: -54.29576
 CYCLE:    28 TIME:   0.023 TIME LEFT:  2.00D  GRAD.:     4.179 HEAT: -54.31278
 CYCLE:    29 TIME:   0.023 TIME LEFT:  2.00D  GRAD.:     4.104 HEAT: -54.32928
 CYCLE:    30 TIME:   0.031 TIME LEFT:  2.00D  GRAD.:     4.129 HEAT: -54.35193
 CYCLE:    31 TIME:   0.023 TIME LEFT:  2.00D  GRAD.:     5.714 HEAT: -54.37861
 CYCLE:    32 TIME:   0.023 TIME LEFT:  2.00D  GRAD.:     6.633 HEAT: -54.40528
 CYCLE:    33 TIME:   0.031 TIME LEFT:  2.00D  GRAD.:     4.724 HEAT: -54.43105
 CYCLE:    34 TIME:   0.023 TIME LEFT:  2.00D  GRAD.:     4.789 HEAT: -54.45980
 CYCLE:    35 TIME:   0.031 TIME LEFT:  2.00D  GRAD.:     9.193 HEAT: -54.48219
 CYCLE:    36 TIME:   0.023 TIME LEFT:  2.00D  GRAD.:     5.438 HEAT: -54.50627
 CYCLE:    37 TIME:   0.023 TIME LEFT:  2.00D  GRAD.:     4.183 HEAT: -54.52421
 CYCLE:    38 TIME:   0.031 TIME LEFT:  2.00D  GRAD.:     4.140 HEAT: -54.54292
 CYCLE:    39 TIME:   0.023 TIME LEFT:  2.00D  GRAD.:     8.611 HEAT: -54.55414
 CYCLE:    40 TIME:   0.023 TIME LEFT:  2.00D  GRAD.:     3.562 HEAT: -54.57020
 CYCLE:    41 TIME:   0.031 TIME LEFT:  2.00D  GRAD.:     3.042 HEAT: -54.58095
 CYCLE:    42 TIME:   0.023 TIME LEFT:  2.00D  GRAD.:     3.928 HEAT: -54.59102
 CYCLE:    43 TIME:   0.023 TIME LEFT:  2.00D  GRAD.:     5.408 HEAT: -54.61167
 CYCLE:    44 TIME:   0.031 TIME LEFT:  2.00D  GRAD.:    11.782 HEAT: -54.61873
 CYCLE:    45 TIME:   0.023 TIME LEFT:  2.00D  GRAD.:     4.813 HEAT: -54.65314
 CYCLE:    46 TIME:   0.031 TIME LEFT:  2.00D  GRAD.:     4.194 HEAT: -54.67903
 CYCLE:    47 TIME:   0.023 TIME LEFT:  2.00D  GRAD.:     5.131 HEAT: -54.70947
 CYCLE:    48 TIME:   0.031 TIME LEFT:  2.00D  GRAD.:     8.982 HEAT: -54.73602
 CYCLE:    49 TIME:   0.023 TIME LEFT:  2.00D  GRAD.:     4.415 HEAT: -54.75777
 CYCLE:    50 TIME:   0.023 TIME LEFT:  2.00D  GRAD.:     4.723 HEAT: -54.78165
 CYCLE:    51 TIME:   0.031 TIME LEFT:  2.00D  GRAD.:     5.728 HEAT: -54.80153
 CYCLE:    52 TIME:   0.023 TIME LEFT:  2.00D  GRAD.:     3.802 HEAT: -54.81881
 CYCLE:    53 TIME:   0.023 TIME LEFT:  2.00D  GRAD.:     5.023 HEAT: -54.82908
 CYCLE:    54 TIME:   0.031 TIME LEFT:  2.00D  GRAD.:     9.689 HEAT: -54.83731
 CYCLE:    55 TIME:   0.023 TIME LEFT:  2.00D  GRAD.:     4.528 HEAT: -54.85384
 CYCLE:    56 TIME:   0.023 TIME LEFT:  2.00D  GRAD.:     3.842 HEAT: -54.86938
 CYCLE:    57 TIME:   0.031 TIME LEFT:  2.00D  GRAD.:     6.676 HEAT: -54.89213
 CYCLE:    58 TIME:   0.023 TIME LEFT:  2.00D  GRAD.:     8.775 HEAT: -54.93098
 CYCLE:    59 TIME:   0.031 TIME LEFT:  2.00D  GRAD.:    13.361 HEAT: -54.96022
 CYCLE:    60 TIME:   0.023 TIME LEFT:  2.00D  GRAD.:     6.336 HEAT: -55.00344
 CYCLE:    61 TIME:   0.031 TIME LEFT:  2.00D  GRAD.:     3.383 HEAT: -55.02293
 CYCLE:    62 TIME:   0.023 TIME LEFT:  2.00D  GRAD.:     6.199 HEAT: -55.03202
 CYCLE:    63 TIME:   0.023 TIME LEFT:  2.00D  GRAD.:     7.376 HEAT: -55.05409
 CYCLE:    64 TIME:   0.031 TIME LEFT:  2.00D  GRAD.:     4.621 HEAT: -55.07593
 CYCLE:    65 TIME:   0.023 TIME LEFT:  2.00D  GRAD.:     6.172 HEAT: -55.10312
 CYCLE:    66 TIME:   0.031 TIME LEFT:  2.00D  GRAD.:     6.958 HEAT: -55.12157
 CYCLE:    67 TIME:   0.023 TIME LEFT:  2.00D  GRAD.:     9.551 HEAT: -55.15299
 CYCLE:    68 TIME:   0.031 TIME LEFT:  2.00D  GRAD.:     9.516 HEAT: -55.18458
 CYCLE:    69 TIME:   0.023 TIME LEFT:  2.00D  GRAD.:    12.068 HEAT: -55.19065
 CYCLE:    70 TIME:   0.031 TIME LEFT:  2.00D  GRAD.:     5.975 HEAT: -55.22623
 CYCLE:    71 TIME:   0.023 TIME LEFT:  2.00D  GRAD.:     4.875 HEAT: -55.24048
 CYCLE:    72 TIME:   0.031 TIME LEFT:  2.00D  GRAD.:     3.517 HEAT: -55.25915
 CYCLE:    73 TIME:   0.023 TIME LEFT:  2.00D  GRAD.:    10.396 HEAT: -55.27193
 CYCLE:    74 TIME:   0.031 TIME LEFT:  2.00D  GRAD.:    19.402 HEAT: -55.20424
 CYCLE:    75 TIME:   0.031 TIME LEFT:  2.00D  GRAD.:    19.417 HEAT: -55.24819
 CYCLE:    76 TIME:   0.023 TIME LEFT:  2.00D  GRAD.:     8.281 HEAT: -55.31595
 CYCLE:    77 TIME:   0.031 TIME LEFT:  2.00D  GRAD.:     2.366 HEAT: -55.32670
 CYCLE:    78 TIME:   0.023 TIME LEFT:  2.00D  GRAD.:    11.572 HEAT: -55.32720
 CYCLE:    79 TIME:   0.031 TIME LEFT:  2.00D  GRAD.:     3.861 HEAT: -55.34728
 CYCLE:    80 TIME:   0.023 TIME LEFT:  2.00D  GRAD.:     2.770 HEAT: -55.35762
 CYCLE:    81 TIME:   0.031 TIME LEFT:  2.00D  GRAD.:     9.133 HEAT: -55.38916
 CYCLE:    82 TIME:   0.023 TIME LEFT:  2.00D  GRAD.:    16.648 HEAT: -55.34075
 CYCLE:    83 TIME:   0.031 TIME LEFT:  2.00D  GRAD.:     9.423 HEAT: -55.42269
 CYCLE:    84 TIME:   0.031 TIME LEFT:  2.00D  GRAD.:     9.873 HEAT: -55.42164
 CYCLE:    85 TIME:   0.023 TIME LEFT:  2.00D  GRAD.:     4.575 HEAT: -55.47226
 CYCLE:    86 TIME:   0.023 TIME LEFT:  2.00D  GRAD.:     6.200 HEAT: -55.48702
 CYCLE:    87 TIME:   0.031 TIME LEFT:  2.00D  GRAD.:     6.435 HEAT: -55.51097
 CYCLE:    88 TIME:   0.031 TIME LEFT:  2.00D  GRAD.:    16.397 HEAT: -55.51243
 CYCLE:    89 TIME:   0.023 TIME LEFT:  2.00D  GRAD.:     4.945 HEAT: -55.55539
 CYCLE:    90 TIME:   0.031 TIME LEFT:  2.00D  GRAD.:     3.960 HEAT: -55.57734
 CYCLE:    91 TIME:   0.031 TIME LEFT:  2.00D  GRAD.:    12.590 HEAT: -55.57592
 CYCLE:    92 TIME:   0.031 TIME LEFT:  2.00D  GRAD.:     4.642 HEAT: -55.62147
 CYCLE:    93 TIME:   0.023 TIME LEFT:  2.00D  GRAD.:     2.278 HEAT: -55.63258
 CYCLE:    94 TIME:   0.031 TIME LEFT:  2.00D  GRAD.:     5.096 HEAT: -55.64932
 CYCLE:    95 TIME:   0.023 TIME LEFT:  2.00D  GRAD.:     4.305 HEAT: -55.66221
 CYCLE:    96 TIME:   0.023 TIME LEFT:  2.00D  GRAD.:     6.664 HEAT: -55.68197
 CYCLE:    97 TIME:   0.031 TIME LEFT:  2.00D  GRAD.:     5.225 HEAT: -55.70036
 CYCLE:    98 TIME:   0.023 TIME LEFT:  2.00D  GRAD.:     5.253 HEAT: -55.71570
 CYCLE:    99 TIME:   0.031 TIME LEFT:  2.00D  GRAD.:    12.817 HEAT: -55.71905
 CYCLE:   100 TIME:   0.023 TIME LEFT:  2.00D  GRAD.:     5.082 HEAT: -55.74384
 CYCLE:   101 TIME:   0.023 TIME LEFT:  2.00D  GRAD.:     3.389 HEAT: -55.75585
 CYCLE:   102 TIME:   0.031 TIME LEFT:  2.00D  GRAD.:     3.882 HEAT: -55.77144
 CYCLE:   103 TIME:   0.031 TIME LEFT:  2.00D  GRAD.:     8.036 HEAT: -55.78854
 CYCLE:   104 TIME:   0.023 TIME LEFT:  2.00D  GRAD.:     7.809 HEAT: -55.80002
 CYCLE:   105 TIME:   0.031 TIME LEFT:  2.00D  GRAD.:     5.859 HEAT: -55.81836
 CYCLE:   106 TIME:   0.023 TIME LEFT:  2.00D  GRAD.:     3.528 HEAT: -55.83287
 CYCLE:   107 TIME:   0.031 TIME LEFT:  2.00D  GRAD.:     4.857 HEAT: -55.84296
 CYCLE:   108 TIME:   0.031 TIME LEFT:  2.00D  GRAD.:     6.155 HEAT: -55.85598
 CYCLE:   109 TIME:   0.023 TIME LEFT:  2.00D  GRAD.:     4.048 HEAT: -55.86853
 CYCLE:   110 TIME:   0.031 TIME LEFT:  2.00D  GRAD.:     3.520 HEAT: -55.88748
 CYCLE:   111 TIME:   0.023 TIME LEFT:  2.00D  GRAD.:     3.640 HEAT: -55.89771
 CYCLE:   112 TIME:   0.031 TIME LEFT:  2.00D  GRAD.:     4.943 HEAT: -55.91432
 CYCLE:   113 TIME:   0.023 TIME LEFT:  2.00D  GRAD.:     4.147 HEAT: -55.93037
 CYCLE:   114 TIME:   0.023 TIME LEFT:  2.00D  GRAD.:     3.153 HEAT: -55.94258
 CYCLE:   115 TIME:   0.031 TIME LEFT:  2.00D  GRAD.:     3.541 HEAT: -55.96103
 CYCLE:   116 TIME:   0.023 TIME LEFT:  2.00D  GRAD.:     8.396 HEAT: -55.96631
 CYCLE:   117 TIME:   0.031 TIME LEFT:  2.00D  GRAD.:     4.835 HEAT: -55.98347
 CYCLE:   118 TIME:   0.023 TIME LEFT:  2.00D  GRAD.:     3.195 HEAT: -55.99149
 CYCLE:   119 TIME:   0.031 TIME LEFT:  2.00D  GRAD.:     2.894 HEAT: -56.00018
 CYCLE:   120 TIME:   0.023 TIME LEFT:  2.00D  GRAD.:     3.673 HEAT: -56.01237
 CYCLE:   121 TIME:   0.031 TIME LEFT:  2.00D  GRAD.:    13.319 HEAT: -55.99580
 CYCLE:   122 TIME:   0.023 TIME LEFT:  2.00D  GRAD.:     3.044 HEAT: -56.03151
 CYCLE:   123 TIME:   0.023 TIME LEFT:  2.00D  GRAD.:     1.998 HEAT: -56.03691
 CYCLE:   124 TIME:   0.031 TIME LEFT:  2.00D  GRAD.:     2.508 HEAT: -56.04410
 CYCLE:   125 TIME:   0.023 TIME LEFT:  2.00D  GRAD.:     4.662 HEAT: -56.05247
 CYCLE:   126 TIME:   0.023 TIME LEFT:  2.00D  GRAD.:     3.514 HEAT: -56.06348
 CYCLE:   127 TIME:   0.031 TIME LEFT:  2.00D  GRAD.:     4.688 HEAT: -56.07471
 CYCLE:   128 TIME:   0.023 TIME LEFT:  2.00D  GRAD.:     3.456 HEAT: -56.08440
 CYCLE:   129 TIME:   0.031 TIME LEFT:  2.00D  GRAD.:     2.793 HEAT: -56.09084
 CYCLE:   130 TIME:   0.023 TIME LEFT:  2.00D  GRAD.:     2.848 HEAT: -56.10054
 CYCLE:   131 TIME:   0.031 TIME LEFT:  2.00D  GRAD.:     9.298 HEAT: -56.09664
 CYCLE:   132 TIME:   0.023 TIME LEFT:  2.00D  GRAD.:     2.541 HEAT: -56.11401
 CYCLE:   133 TIME:   0.023 TIME LEFT:  2.00D  GRAD.:     1.903 HEAT: -56.11767
 CYCLE:   134 TIME:   0.031 TIME LEFT:  2.00D  GRAD.:     3.137 HEAT: -56.12343
 CYCLE:   135 TIME:   0.023 TIME LEFT:  2.00D  GRAD.:     3.649 HEAT: -56.13285
 CYCLE:   136 TIME:   0.031 TIME LEFT:  2.00D  GRAD.:     3.865 HEAT: -56.14599
 CYCLE:   137 TIME:   0.023 TIME LEFT:  2.00D  GRAD.:     3.280 HEAT: -56.15168
 CYCLE:   138 TIME:   0.023 TIME LEFT:  2.00D  GRAD.:     2.435 HEAT: -56.15505
 CYCLE:   139 TIME:   0.031 TIME LEFT:  2.00D  GRAD.:     2.046 HEAT: -56.15848
 CYCLE:   140 TIME:   0.023 TIME LEFT:  2.00D  GRAD.:     2.403 HEAT: -56.16327
 CYCLE:   141 TIME:   0.023 TIME LEFT:  2.00D  GRAD.:     2.549 HEAT: -56.16973
 CYCLE:   142 TIME:   0.031 TIME LEFT:  2.00D  GRAD.:     6.206 HEAT: -56.17043
 CYCLE:   143 TIME:   0.023 TIME LEFT:  2.00D  GRAD.:     2.372 HEAT: -56.17677
 CYCLE:   144 TIME:   0.023 TIME LEFT:  2.00D  GRAD.:     1.762 HEAT: -56.17947
 CYCLE:   145 TIME:   0.031 TIME LEFT:  2.00D  GRAD.:     1.911 HEAT: -56.18286
 CYCLE:   146 TIME:   0.031 TIME LEFT:  2.00D  GRAD.:     2.612 HEAT: -56.18998
 CYCLE:   147 TIME:   0.023 TIME LEFT:  2.00D  GRAD.:     8.850 HEAT: -56.18830
 CYCLE:   148 TIME:   0.023 TIME LEFT:  2.00D  GRAD.:     2.422 HEAT: -56.20103
 CYCLE:   149 TIME:   0.031 TIME LEFT:  2.00D  GRAD.:     1.655 HEAT: -56.20418
 CYCLE:   150 TIME:   0.023 TIME LEFT:  2.00D  GRAD.:     2.070 HEAT: -56.20793
 CYCLE:   151 TIME:   0.031 TIME LEFT:  2.00D  GRAD.:     2.305 HEAT: -56.21409
 CYCLE:   152 TIME:   0.023 TIME LEFT:  2.00D  GRAD.:     4.804 HEAT: -56.21936
 CYCLE:   153 TIME:   0.023 TIME LEFT:  2.00D  GRAD.:     4.148 HEAT: -56.22523
 CYCLE:   154 TIME:   0.031 TIME LEFT:  2.00D  GRAD.:     2.070 HEAT: -56.22922
 CYCLE:   155 TIME:   0.023 TIME LEFT:  2.00D  GRAD.:     1.598 HEAT: -56.23204
 CYCLE:   156 TIME:   0.031 TIME LEFT:  2.00D  GRAD.:     1.893 HEAT: -56.23573
 CYCLE:   157 TIME:   0.031 TIME LEFT:  2.00D  GRAD.:     2.630 HEAT: -56.24084
 CYCLE:   158 TIME:   0.023 TIME LEFT:  2.00D  GRAD.:     7.201 HEAT: -56.23760
 CYCLE:   159 TIME:   0.031 TIME LEFT:  2.00D  GRAD.:     1.718 HEAT: -56.24773
 CYCLE:   160 TIME:   0.023 TIME LEFT:  2.00D  GRAD.:     1.402 HEAT: -56.24884
 CYCLE:   161 TIME:   0.031 TIME LEFT:  2.00D  GRAD.:     1.456 HEAT: -56.25394
 CYCLE:   162 TIME:   0.031 TIME LEFT:  2.00D  GRAD.:     3.844 HEAT: -56.26181
 CYCLE:   163 TIME:   0.023 TIME LEFT:  2.00D  GRAD.:     6.139 HEAT: -56.26084
 CYCLE:   164 TIME:   0.023 TIME LEFT:  2.00D  GRAD.:     1.577 HEAT: -56.26734
 CYCLE:   165 TIME:   0.023 TIME LEFT:  2.00D  GRAD.:     1.195 HEAT: -56.26846
 CYCLE:   166 TIME:   0.031 TIME LEFT:  2.00D  GRAD.:     1.734 HEAT: -56.27192
 CYCLE:   167 TIME:   0.031 TIME LEFT:  2.00D  GRAD.:     2.444 HEAT: -56.27508
 CYCLE:   168 TIME:   0.023 TIME LEFT:  2.00D  GRAD.:     2.642 HEAT: -56.27841
 CYCLE:   169 TIME:   0.023 TIME LEFT:  2.00D  GRAD.:     1.684 HEAT: -56.28216
 CYCLE:   170 TIME:   0.031 TIME LEFT:  2.00D  GRAD.:     2.273 HEAT: -56.28738
 CYCLE:   171 TIME:   0.023 TIME LEFT:  2.00D  GRAD.:     2.937 HEAT: -56.29126
 CYCLE:   172 TIME:   0.031 TIME LEFT:  2.00D  GRAD.:     2.342 HEAT: -56.29758
 CYCLE:   173 TIME:   0.023 TIME LEFT:  2.00D  GRAD.:     4.233 HEAT: -56.30341
 CYCLE:   174 TIME:   0.023 TIME LEFT:  2.00D  GRAD.:     2.370 HEAT: -56.31127
 CYCLE:   175 TIME:   0.031 TIME LEFT:  2.00D  GRAD.:     2.302 HEAT: -56.31741
 CYCLE:   176 TIME:   0.023 TIME LEFT:  2.00D  GRAD.:     2.680 HEAT: -56.32542
 CYCLE:   177 TIME:   0.031 TIME LEFT:  2.00D  GRAD.:     3.600 HEAT: -56.33048
 CYCLE:   178 TIME:   0.023 TIME LEFT:  2.00D  GRAD.:     3.727 HEAT: -56.33708
 CYCLE:   179 TIME:   0.023 TIME LEFT:  2.00D  GRAD.:     2.798 HEAT: -56.34156
 CYCLE:   180 TIME:   0.031 TIME LEFT:  2.00D  GRAD.:     2.748 HEAT: -56.34821
 CYCLE:   181 TIME:   0.023 TIME LEFT:  2.00D  GRAD.:     3.498 HEAT: -56.35388
 CYCLE:   182 TIME:   0.031 TIME LEFT:  2.00D  GRAD.:     3.052 HEAT: -56.35924
 CYCLE:   183 TIME:   0.023 TIME LEFT:  2.00D  GRAD.:     3.664 HEAT: -56.36444
 CYCLE:   184 TIME:   0.023 TIME LEFT:  2.00D  GRAD.:     2.009 HEAT: -56.36820
 CYCLE:   185 TIME:   0.031 TIME LEFT:  2.00D  GRAD.:     1.537 HEAT: -56.36984
 CYCLE:   186 TIME:   0.023 TIME LEFT:  2.00D  GRAD.:     1.746 HEAT: -56.37361
 CYCLE:   187 TIME:   0.031 TIME LEFT:  2.00D  GRAD.:     1.901 HEAT: -56.37671
 CYCLE:   188 TIME:   0.023 TIME LEFT:  2.00D  GRAD.:     3.049 HEAT: -56.37827
 CYCLE:   189 TIME:   0.031 TIME LEFT:  2.00D  GRAD.:     1.473 HEAT: -56.38089
 CYCLE:   190 TIME:   0.023 TIME LEFT:  2.00D  GRAD.:     1.377 HEAT: -56.38270
 CYCLE:   191 TIME:   0.031 TIME LEFT:  2.00D  GRAD.:     1.972 HEAT: -56.38499
 CYCLE:   192 TIME:   0.023 TIME LEFT:  2.00D  GRAD.:     1.628 HEAT: -56.38779
 CYCLE:   193 TIME:   0.023 TIME LEFT:  2.00D  GRAD.:     1.762 HEAT: -56.38981
 CYCLE:   194 TIME:   0.031 TIME LEFT:  2.00D  GRAD.:     1.433 HEAT: -56.39145
 CYCLE:   195 TIME:   0.023 TIME LEFT:  2.00D  GRAD.:     1.297 HEAT: -56.39276
 CYCLE:   196 TIME:   0.031 TIME LEFT:  2.00D  GRAD.:     1.378 HEAT: -56.39470
 CYCLE:   197 TIME:   0.023 TIME LEFT:  2.00D  GRAD.:     2.382 HEAT: -56.39480
 CYCLE:   198 TIME:   0.023 TIME LEFT:  2.00D  GRAD.:     0.818 HEAT: -56.39596

 -------------------------------------------------------------------------------
 PM7 XYZ

 Lipophilicity_292 - geometry optimisation


     HERBERTS TEST WAS SATISFIED IN BFGS                      
     SCF FIELD WAS ACHIEVED                                   


                              PM7 CALCULATION
                                                       MOPAC v23.0.3 Linux
                                                       Fri Jul 25 19:23:04 2025




          FINAL HEAT OF FORMATION =        -56.39596 KCAL/MOL =    -235.96071 KJ/MOL


          COSMO AREA              =        301.07 SQUARE ANGSTROMS
          COSMO VOLUME            =        363.44 CUBIC ANGSTROMS

          GRADIENT NORM           =          0.81755          =       0.12054 PER ATOM
          IONIZATION POTENTIAL    =          9.433019 EV
          HOMO LUMO ENERGIES (EV) =         -9.433 -0.133
          NO. OF FILLED LEVELS    =         56
          MOLECULAR WEIGHT        =        283.4126         POINT GROUP:  C1  

          MOLECULAR DIMENSIONS (Angstroms)

            Atom       Atom       Distance
            H    40    H    26    11.65427
            H    35    H    28     5.94030
            H    22    H    34     5.73605


          SCF CALCULATIONS        =        199

          WALL-CLOCK TIME         =      5.570 SECONDS
          COMPUTATION TIME        =          1 MINUTE AND 50.816 SECONDS




   ATOM   CHEMICAL          X               Y               Z
  NUMBER   SYMBOL      (ANGSTROMS)     (ANGSTROMS)     (ANGSTROMS)

     1       C         -3.00584749  *   1.83212967  *   0.62352584  *
     2       C         -3.73218689  *   0.55247037  *   0.40201610  *
     3       C         -4.89531776  *   0.26515013  *   1.12331962  *
     4       C         -5.57430479  *  -0.93231315  *   0.91718335  *
     5       C         -5.10242183  *  -1.85765847  *  -0.01364505  *
     6       C         -3.94793605  *  -1.57980977  *  -0.73946082  *
     7       C         -3.26523109  *  -0.38283989  *  -0.52732651  *
     8       C         -2.04601445  *  -0.08159005  *  -1.32737662  *
     9       O         -1.93858918  *   0.88120488  *  -2.05978410  *
    10       N         -1.03060344  *  -1.01372372  *  -1.21084786  *
    11       C          0.26303363  *  -0.77599925  *  -1.85244765  *
    12       C          1.35652349  *  -0.30116061  *  -0.85870498  *
    13       C          1.61799989  *  -1.37254334  *   0.21896814  *
    14       C          2.73985007  *  -0.89442528  *   1.16094689  *
    15       C          2.31303562  *   0.42134043  *   1.83793823  *
    16       C          2.05665286  *   1.49373040  *   0.76250578  *
    17       C          3.34615858  *   1.72620377  *  -0.04592915  *
    18       C          3.77179882  *   0.41069539  *  -0.72331375  *
    19       C          4.02745707  *  -0.66357361  *   0.34959688  *
    20       C          2.65182009  *  -0.06535717  *  -1.66637313  *
    21       C          0.93794870  *   1.01611046  *  -0.17979397  *
    22       H         -2.84712208  *   2.36588643  *  -0.33344314  *
    23       H         -3.53848969  *   2.52069517  *   1.29063038  *
    24       H         -2.00848540  *   1.66278695  *   1.05635144  *
    25       H         -5.27430538  *   0.98517280  *   1.84553123  *
    26       H         -6.48036684  *  -1.14626012  *   1.48280663  *
    27       H         -5.63683006  *  -2.79065010  *  -0.17463780  *
    28       H         -3.58263709  *  -2.29215723  *  -1.47994274  *
    29       H         -1.06975272  *  -1.74056910  *  -0.51695251  *
    30       H          0.13769784  *  -0.01359793  *  -2.66035036  *
    31       H          0.58452797  *  -1.71884572  *  -2.34854949  *
    32       H          1.90007284  *  -2.33002919  *  -0.25084247  *
    33       H          0.70282992  *  -1.56546895  *   0.80445182  *
    34       H          2.92487564  *  -1.66871171  *   1.93766902  *
    35       H          3.09547763  *   0.76131210  *   2.53789594  *
    36       H          1.40354172  *   0.26174616  *   2.44214974  *
    37       H          1.74842488  *   2.44427753  *   1.25125982  *
    38       H          4.15050750  *   2.09318807  *   0.61424101  *
    39       H          3.18425029  *   2.51129140  *  -0.80491234  *
    40       H          4.70221116  *   0.57874966  *  -1.30937101  *
    41       H          4.84898764  *  -0.35048990  *   1.01642886  *
    42       H          4.35463200  *  -1.60541549  *  -0.12336281  *
    43       H          2.47855935  *   0.68862479  *  -2.45489062  *
    44       H          2.95977839  *  -0.99122336  *  -2.18139084  *
    45       H          0.71811153  *   1.78582072  *  -0.94240461  *
    46       H         -0.00029630  *   0.87583572  *   0.38482824  *

                             CARTESIAN COORDINATES

   1    C       -3.005847487     1.832129674     0.623525840
   2    C       -3.732186885     0.552470370     0.402016103
   3    C       -4.895317757     0.265150127     1.123319620
   4    C       -5.574304793    -0.932313151     0.917183355
   5    C       -5.102421830    -1.857658473    -0.013645046
   6    C       -3.947936053    -1.579809768    -0.739460824
   7    C       -3.265231089    -0.382839894    -0.527326506
   8    C       -2.046014452    -0.081590054    -1.327376624
   9    O       -1.938589179     0.881204885    -2.059784096
  10    N       -1.030603435    -1.013723723    -1.210847858
  11    C        0.263033629    -0.775999248    -1.852447654
  12    C        1.356523485    -0.301160615    -0.858704984
  13    C        1.617999885    -1.372543341     0.218968144
  14    C        2.739850075    -0.894425277     1.160946888
  15    C        2.313035619     0.421340426     1.837938227
  16    C        2.056652857     1.493730404     0.762505780
  17    C        3.346158576     1.726203767    -0.045929147
  18    C        3.771798821     0.410695388    -0.723313748
  19    C        4.027457073    -0.663573606     0.349596878
  20    C        2.651820089    -0.065357165    -1.666373128
  21    C        0.937948697     1.016110464    -0.179793965
  22    H       -2.847122079     2.365886435    -0.333443144
  23    H       -3.538489690     2.520695166     1.290630377
  24    H       -2.008485395     1.662786948     1.056351436
  25    H       -5.274305377     0.985172804     1.845531231
  26    H       -6.480366837    -1.146260118     1.482806632
  27    H       -5.636830060    -2.790650102    -0.174637801
  28    H       -3.582637093    -2.292157230    -1.479942743
  29    H       -1.069752723    -1.740569100    -0.516952513
  30    H        0.137697839    -0.013597934    -2.660350362
  31    H        0.584527967    -1.718845722    -2.348549491
  32    H        1.900072839    -2.330029195    -0.250842469
  33    H        0.702829925    -1.565468951     0.804451821
  34    H        2.924875642    -1.668711712     1.937669024
  35    H        3.095477631     0.761312102     2.537895944
  36    H        1.403541723     0.261746159     2.442149740
  37    H        1.748424876     2.444277531     1.251259816
  38    H        4.150507500     2.093188069     0.614241008
  39    H        3.184250292     2.511291398    -0.804912341
  40    H        4.702211161     0.578749655    -1.309371012
  41    H        4.848987643    -0.350489900     1.016428859
  42    H        4.354631995    -1.605415488    -0.123362807
  43    H        2.478559355     0.688624795    -2.454890616
  44    H        2.959778386    -0.991223363    -2.181390843
  45    H        0.718111533     1.785820718    -0.942404612
  46    H       -0.000296299     0.875835722     0.384828238


           Empirical Formula: C19 H25 N O  =    46 atoms



      MOLECULAR POINT GROUP   :   C1  


                  EIGENVALUES  
 -36.63691 -31.78543 -30.84905 -29.89094 -27.65184 -27.38823 -26.87449 -26.82715
 -26.32477 -24.00059 -23.38137 -22.83635 -22.68903 -21.78828 -20.80302 -20.18621
 -19.98091 -19.59296 -19.21836 -18.12807 -17.70496 -16.36156 -16.24954 -15.67282
 -15.24538 -15.18590 -15.14532 -15.07679 -14.99859 -14.64389 -14.38988 -14.17303
 -13.99330 -13.96367 -13.90523 -13.60640 -13.28570 -13.09814 -13.02751 -12.96799
 -12.78001 -12.52236 -12.27801 -12.07096 -11.66383 -11.61891 -11.58655 -11.53617
 -11.44921 -10.68359 -10.35652 -10.29570 -10.21700  -9.98469  -9.62843  -9.43302
  -0.13323   0.13858   1.47006   2.20297   2.48121   3.55470   3.63177   3.89932
   3.91995   3.96056   4.15248   4.20323   4.22727   4.33629   4.35822   4.53597
   4.57463   4.66302   4.82363   4.83178   5.03140   5.05711   5.06864   5.10018
   5.15397   5.41645   5.58654   5.65398   5.75117   5.77511   5.79995   5.82590
   5.83543   5.88789   5.89571   5.98688   6.01662   6.02152   6.05670   6.11219
   6.12507   6.14597   6.16531   6.30643   6.33158   6.51857   6.66314   6.71159
   6.75880   6.79782   6.80960   6.84396   6.98560


              NET ATOMIC CHARGES AND DIPOLE CONTRIBUTIONS

  ATOM NO.   TYPE          CHARGE      No. of ELECS.   s-Pop       p-Pop       
    1          C          -0.467950        4.4680     1.05071     3.41724
    2          C           0.100124        3.8999     1.06942     2.83045
    3          C          -0.200901        4.2009     1.08313     3.11778
    4          C          -0.105973        4.1060     1.08642     3.01955
    5          C          -0.183637        4.1836     1.07993     3.10370
    6          C          -0.104805        4.1048     1.08474     3.02007
    7          C          -0.176406        4.1764     1.07409     3.10232
    8          C           0.590305        3.4097     1.07264     2.33706
    9          O          -0.525532        6.5255     1.88081     4.64472
   10          N          -0.593571        5.5936     1.56475     4.02882
   11          C          -0.105099        4.1051     1.07494     3.03016
   12          C           0.053566        3.9464     1.06777     2.87867
   13          C          -0.300478        4.3005     1.06692     3.23355
   14          C          -0.079803        4.0798     1.06206     3.01775
   15          C          -0.293203        4.2932     1.06512     3.22808
   16          C          -0.080688        4.0807     1.06203     3.01866
   17          C          -0.292863        4.2929     1.06500     3.22786
   18          C          -0.076946        4.0769     1.06168     3.01526
   19          C          -0.294937        4.2949     1.06496     3.22998
   20          C          -0.305159        4.3052     1.06797     3.23719
   21          C          -0.294600        4.2946     1.06637     3.22823
   22          H           0.191694        0.8083     0.80831
   23          H           0.156044        0.8440     0.84396
   24          H           0.164479        0.8355     0.83552
   25          H           0.155762        0.8442     0.84424
   26          H           0.147107        0.8529     0.85289
   27          H           0.153442        0.8466     0.84656
   28          H           0.157021        0.8430     0.84298
   29          H           0.308025        0.6920     0.69198
   30          H           0.174310        0.8257     0.82569
   31          H           0.137701        0.8623     0.86230
   32          H           0.133428        0.8666     0.86657
   33          H           0.131544        0.8685     0.86846
   34          H           0.120132        0.8799     0.87987
   35          H           0.133176        0.8668     0.86682
   36          H           0.133844        0.8662     0.86616
   37          H           0.122423        0.8776     0.87758
   38          H           0.132641        0.8674     0.86736
   39          H           0.136544        0.8635     0.86346
   40          H           0.121374        0.8786     0.87863
   41          H           0.133848        0.8662     0.86615
   42          H           0.132831        0.8672     0.86717
   43          H           0.140983        0.8590     0.85902
   44          H           0.133927        0.8661     0.86607
   45          H           0.149881        0.8501     0.85012
   46          H           0.136395        0.8636     0.86361
 DIPOLE           X         Y         Z       TOTAL
 POINT-CHG.     0.970    -1.754     2.274     3.031
 HYBRID         0.062    -0.210     0.268     0.346
 SUM            1.032    -1.964     2.541     3.374


          ATOMIC ORBITAL ELECTRON POPULATIONS

     Atom    s        px        py        pz   
    1  C   1.05071   1.14695   1.06977   1.20052
    2  C   1.06942   0.94982   0.94588   0.93475
    3  C   1.08313   1.01579   1.04128   1.06071
    4  C   1.08642   1.03929   0.98382   0.99645
    5  C   1.07993   1.02241   1.06654   1.01475
    6  C   1.08474   0.99134   1.01102   1.01772
    7  C   1.07409   1.03579   1.01873   1.04780
    8  C   1.07264   0.81131   0.75178   0.77397
    9  O   1.88081   1.82424   1.36927   1.45122
   10  N   1.56475   1.19583   1.34951   1.48348
   11  C   1.07494   0.84731   1.14834   1.03450
   12  C   1.06777   0.95077   0.97076   0.95714
   13  C   1.06692   1.09026   1.07559   1.06771
   14  C   1.06206   0.97587   1.02233   1.01955
   15  C   1.06512   1.14160   1.02868   1.05781
   16  C   1.06203   0.98316   1.04257   0.99293
   17  C   1.06500   1.06813   1.05405   1.10568
   18  C   1.06168   1.03815   0.97816   0.99895
   19  C   1.06496   1.05859   1.09534   1.07606
   20  C   1.06797   1.02858   1.14362   1.06500
   21  C   1.06637   1.06796   1.06126   1.09901
   22  H   0.80831
   23  H   0.84396
   24  H   0.83552
   25  H   0.84424
   26  H   0.85289
   27  H   0.84656
   28  H   0.84298
   29  H   0.69198
   30  H   0.82569
   31  H   0.86230
   32  H   0.86657
   33  H   0.86846
   34  H   0.87987
   35  H   0.86682
   36  H   0.86616
   37  H   0.87758
   38  H   0.86736
   39  H   0.86346
   40  H   0.87863
   41  H   0.86615
   42  H   0.86717
   43  H   0.85902
   44  H   0.86607
   45  H   0.85012
   46  H   0.86361

 **********************
 *                    *
 * JOB ENDED NORMALLY *
 *                    *
 **********************



 TOTAL JOB TIME:             5.57 SECONDS

 == MOPAC DONE ==
