 *******************************************************************************
 **                                                                           **
 **                              MOPAC v23.0.3                                **
 **                                                                           **
 *******************************************************************************
 **          Digital Object Identifier (DOI): 10.5281/zenodo.6511958          **
 **    Visit the DOI location for information on how to cite this program.    **
 *******************************************************************************

                              PM7 CALCULATION RESULTS

 *******************************************************************************
 *  CALCULATION DONE:                                Fri Jul 25 17:18:05 2025  *
 *  PM7        - The PM7 Hamiltonian to be used
 *  XYZ        - CARTESIAN COORDINATE SYSTEM TO BE USED
 *  T=         - A TIME OF 172800.0 SECONDS REQUESTED
 *  DUMP=N     - RESTART FILE WRITTEN EVERY 7200.0 SECONDS REQUESTED
 *******************************************************************************
PM7 XYZ

 Lipophilicity_1479 - geometry optimisation
   ATOM   CHEMICAL          X               Y               Z
  NUMBER   SYMBOL      (ANGSTROMS)     (ANGSTROMS)     (ANGSTROMS)

     1       F          6.72258200  *   3.31722700  *  -2.58835100  *
     2       C          5.57703000  *   2.93382800  *  -1.97279500  *
     3       C          4.49581300  *   2.47726400  *  -2.72998300  *
     4       C          3.31294000  *   2.08213700  *  -2.09789100  *
     5       C          3.19979400  *   2.13677200  *  -0.69556000  *
     6       C          4.29635600  *   2.60222800  *   0.05593900  *
     7       C          5.47658000  *   2.99699900  *  -0.58117100  *
     8       N          1.97666700  *   1.73247500  *  -0.04146800  *
     9       C          2.02138500  *   1.08406900  *   1.27747700  *
    10       C          0.88303700  *   0.06755900  *   1.42184500  *
    11       N         -0.40896800  *   0.63445900  *   1.00983400  *
    12       C         -0.46409900  *   1.95273800  *   0.36966900  *
    13       C          0.68152000  *   2.10170400  *  -0.63530100  *
    14       C         -1.63846700  *   0.03154500  *   1.45268500  *
    15       O         -2.49327400  *   0.74746400  *   2.04240800  *
    16       C         -1.96919800  *  -1.42385400  *   1.19056100  *
    17       C         -1.27939400  *  -2.36937500  *   2.18862700  *
    18       C         -1.81763000  *  -3.80986600  *   2.05636300  *
    19       C         -2.31141500  *  -4.15654500  *   0.63549400  *
    20       C         -1.54031100  *  -3.38474400  *  -0.44337900  *
    21       C         -1.67146300  *  -1.84555000  *  -0.27870000  *
    22       C         -2.72645800  *  -1.28474400  *  -1.20257800  *
    23       O         -3.90634400  *  -1.72888500  *  -1.14842800  *
    24       N         -2.39894500  *  -0.22408500  *  -2.11238200  *
    25       C         -3.41439700  *   0.48702200  *  -2.88248500  *
    26       C         -4.21932700  *   1.33051500  *  -1.99270300  *
    27       N         -4.85344700  *   1.99498100  *  -1.28882500  *
    28       H          4.57361600  *   2.42671300  *  -3.80839500  *
    29       H          2.49380500  *   1.72084000  *  -2.70481300  *
    30       H          4.23526400  *   2.67635000  *   1.13383800  *
    31       H          6.31232100  *   3.35556100  *   0.00592900  *
    32       H          1.93269300  *   1.85944700  *   2.06909000  *
    33       H          2.98611100  *   0.54854600  *   1.41678600  *
    34       H          0.83350800  *  -0.24808000  *   2.48659000  *
    35       H          1.11456600  *  -0.81852200  *   0.79459900  *
    36       H         -0.38717100  *   2.74285500  *   1.14765100  *
    37       H         -1.42946300  *   2.08277200  *  -0.16788900  *
    38       H          0.48057800  *   1.44786200  *  -1.50975500  *
    39       H          0.71328200  *   3.15766600  *  -0.98195700  *
    40       H         -3.06415200  *  -1.53866700  *   1.36896400  *
    41       H         -1.43912200  *  -2.01250500  *   3.22976400  *
    42       H         -0.18643700  *  -2.38812400  *   1.99982600  *
    43       H         -2.65942200  *  -3.95499600  *   2.76827400  *
    44       H         -1.01321600  *  -4.51950000  *   2.34975100  *
    45       H         -3.39361100  *  -3.91587100  *   0.54889800  *
    46       H         -2.19952100  *  -5.24867800  *   0.46180200  *
    47       H         -0.46678000  *  -3.66868600  *  -0.36941000  *
    48       H         -1.88476000  *  -3.70928100  *  -1.45011900  *
    49       H         -0.69158500  *  -1.42315300  *  -0.58648100  *
    50       H         -1.39865400  *   0.04514900  *  -2.24577600  *
    51       H         -2.92256800  *   1.13574600  *  -3.63792200  *
    52       H         -4.06984800  *  -0.23678400  *  -3.41171800  *



          CARTESIAN COORDINATES 

    NO.       ATOM           X           Y           Z

     1         F          6.7226      3.3172     -2.5884
     2         C          5.5770      2.9338     -1.9728
     3         C          4.4958      2.4773     -2.7300
     4         C          3.3129      2.0821     -2.0979
     5         C          3.1998      2.1368     -0.6956
     6         C          4.2964      2.6022      0.0559
     7         C          5.4766      2.9970     -0.5812
     8         N          1.9767      1.7325     -0.0415
     9         C          2.0214      1.0841      1.2775
    10         C          0.8830      0.0676      1.4218
    11         N         -0.4090      0.6345      1.0098
    12         C         -0.4641      1.9527      0.3697
    13         C          0.6815      2.1017     -0.6353
    14         C         -1.6385      0.0315      1.4527
    15         O         -2.4933      0.7475      2.0424
    16         C         -1.9692     -1.4239      1.1906
    17         C         -1.2794     -2.3694      2.1886
    18         C         -1.8176     -3.8099      2.0564
    19         C         -2.3114     -4.1565      0.6355
    20         C         -1.5403     -3.3847     -0.4434
    21         C         -1.6715     -1.8456     -0.2787
    22         C         -2.7265     -1.2847     -1.2026
    23         O         -3.9063     -1.7289     -1.1484
    24         N         -2.3989     -0.2241     -2.1124
    25         C         -3.4144      0.4870     -2.8825
    26         C         -4.2193      1.3305     -1.9927
    27         N         -4.8534      1.9950     -1.2888
    28         H          4.5736      2.4267     -3.8084
    29         H          2.4938      1.7208     -2.7048
    30         H          4.2353      2.6764      1.1338
    31         H          6.3123      3.3556      0.0059
    32         H          1.9327      1.8594      2.0691
    33         H          2.9861      0.5485      1.4168
    34         H          0.8335     -0.2481      2.4866
    35         H          1.1146     -0.8185      0.7946
    36         H         -0.3872      2.7429      1.1477
    37         H         -1.4295      2.0828     -0.1679
    38         H          0.4806      1.4479     -1.5098
    39         H          0.7133      3.1577     -0.9820
    40         H         -3.0642     -1.5387      1.3690
    41         H         -1.4391     -2.0125      3.2298
    42         H         -0.1864     -2.3881      1.9998
    43         H         -2.6594     -3.9550      2.7683
    44         H         -1.0132     -4.5195      2.3498
    45         H         -3.3936     -3.9159      0.5489
    46         H         -2.1995     -5.2487      0.4618
    47         H         -0.4668     -3.6687     -0.3694
    48         H         -1.8848     -3.7093     -1.4501
    49         H         -0.6916     -1.4232     -0.5865
    50         H         -1.3987      0.0451     -2.2458
    51         H         -2.9226      1.1357     -3.6379
    52         H         -4.0698     -0.2368     -3.4117

 General Reference for PM7:
 "Optimization of Parameters for Semiempirical Methods VI: More Modifications to the 
 NDDO Approximations and Re-optimization of Parameters", J. J. P. Stewart, J. Mol. Mod., 1:32, 19 (2013)
 https://link.springer.com/article/10.1007/s00894-012-1667-x

           Empirical Formula: C20 H25 N4 O2 F  =    52 atoms



      MOLECULAR POINT GROUP   :   C1  


      RHF CALCULATION, NO. OF DOUBLY OCCUPIED LEVELS = 72


          Geometry optimization using L-BFGS
 CYCLE:     1 TIME:   0.078 TIME LEFT:  2.00D  GRAD.:   220.516 HEAT: -53.85399
 CYCLE:     2 TIME:   0.035 TIME LEFT:  2.00D  GRAD.:   215.230 HEAT: -54.33445
 CYCLE:     3 TIME:   0.039 TIME LEFT:  2.00D  GRAD.:    75.337 HEAT: -64.70475
 CYCLE:     4 TIME:   0.043 TIME LEFT:  2.00D  GRAD.:   215.316 HEAT: -54.33613
 CYCLE:     5 TIME:   0.043 TIME LEFT:  2.00D  GRAD.:    75.420 HEAT: -64.70354
 CYCLE:     6 TIME:   0.035 TIME LEFT:  2.00D  GRAD.:    52.030 HEAT: -65.71345
 CYCLE:     7 TIME:   0.039 TIME LEFT:  2.00D  GRAD.:    44.318 HEAT: -66.85139
 CYCLE:     8 TIME:   0.035 TIME LEFT:  2.00D  GRAD.:    48.886 HEAT: -67.98541
 CYCLE:     9 TIME:   0.043 TIME LEFT:  2.00D  GRAD.:    75.748 HEAT: -68.96570
 CYCLE:    10 TIME:   0.035 TIME LEFT:  2.00D  GRAD.:    28.758 HEAT: -69.72874
 CYCLE:    11 TIME:   0.035 TIME LEFT:  2.00D  GRAD.:    26.916 HEAT: -70.09715
 CYCLE:    12 TIME:   0.039 TIME LEFT:  2.00D  GRAD.:    33.864 HEAT: -70.50262
 CYCLE:    13 TIME:   0.039 TIME LEFT:  2.00D  GRAD.:    39.137 HEAT: -71.45744
 CYCLE:    14 TIME:   0.043 TIME LEFT:  2.00D  GRAD.:    74.979 HEAT: -72.11556
 CYCLE:    15 TIME:   0.035 TIME LEFT:  2.00D  GRAD.:    28.081 HEAT: -73.11094
 CYCLE:    16 TIME:   0.035 TIME LEFT:  2.00D  GRAD.:    18.624 HEAT: -73.54504
 CYCLE:    17 TIME:   0.039 TIME LEFT:  2.00D  GRAD.:    20.746 HEAT: -73.91860
 CYCLE:    18 TIME:   0.039 TIME LEFT:  2.00D  GRAD.:    28.960 HEAT: -74.28659
 CYCLE:    19 TIME:   0.043 TIME LEFT:  2.00D  GRAD.:    21.395 HEAT: -74.65390
 CYCLE:    20 TIME:   0.039 TIME LEFT:  2.00D  GRAD.:    19.084 HEAT: -74.88943
 CYCLE:    21 TIME:   0.035 TIME LEFT:  2.00D  GRAD.:    17.812 HEAT: -75.07040
 CYCLE:    22 TIME:   0.035 TIME LEFT:  2.00D  GRAD.:    16.201 HEAT: -75.24044
 CYCLE:    23 TIME:   0.039 TIME LEFT:  2.00D  GRAD.:    21.719 HEAT: -75.48599
 CYCLE:    24 TIME:   0.039 TIME LEFT:  2.00D  GRAD.:    25.284 HEAT: -75.61691
 CYCLE:    25 TIME:   0.035 TIME LEFT:  2.00D  GRAD.:    15.758 HEAT: -75.73237
 CYCLE:    26 TIME:   0.039 TIME LEFT:  2.00D  GRAD.:    10.206 HEAT: -75.87478
 CYCLE:    27 TIME:   0.035 TIME LEFT:  2.00D  GRAD.:    12.265 HEAT: -76.03008
 CYCLE:    28 TIME:   0.039 TIME LEFT:  2.00D  GRAD.:    16.232 HEAT: -76.25776
 CYCLE:    29 TIME:   0.039 TIME LEFT:  2.00D  GRAD.:    28.517 HEAT: -76.35525
 CYCLE:    30 TIME:   0.035 TIME LEFT:  2.00D  GRAD.:    11.371 HEAT: -76.55060
 CYCLE:    31 TIME:   0.035 TIME LEFT:  2.00D  GRAD.:    10.275 HEAT: -76.63811
 CYCLE:    32 TIME:   0.039 TIME LEFT:  2.00D  GRAD.:    19.258 HEAT: -76.77664
 CYCLE:    33 TIME:   0.039 TIME LEFT:  2.00D  GRAD.:    16.066 HEAT: -76.93189
 CYCLE:    34 TIME:   0.039 TIME LEFT:  2.00D  GRAD.:    13.210 HEAT: -77.08020
 CYCLE:    35 TIME:   0.039 TIME LEFT:  2.00D  GRAD.:    31.494 HEAT: -77.21842
 CYCLE:    36 TIME:   0.039 TIME LEFT:  2.00D  GRAD.:    18.321 HEAT: -77.37953
 CYCLE:    37 TIME:   0.035 TIME LEFT:  2.00D  GRAD.:    10.900 HEAT: -77.45364
 CYCLE:    38 TIME:   0.035 TIME LEFT:  2.00D  GRAD.:    12.273 HEAT: -77.56536
 CYCLE:    39 TIME:   0.039 TIME LEFT:  2.00D  GRAD.:    13.914 HEAT: -77.66153
 CYCLE:    40 TIME:   0.039 TIME LEFT:  2.00D  GRAD.:    20.935 HEAT: -77.85629
 CYCLE:    41 TIME:   0.039 TIME LEFT:  2.00D  GRAD.:    19.109 HEAT: -78.01126
 CYCLE:    42 TIME:   0.039 TIME LEFT:  2.00D  GRAD.:    34.805 HEAT: -78.02870
 CYCLE:    43 TIME:   0.035 TIME LEFT:  2.00D  GRAD.:    11.879 HEAT: -78.20623
 CYCLE:    44 TIME:   0.035 TIME LEFT:  2.00D  GRAD.:    10.114 HEAT: -78.27217
 CYCLE:    45 TIME:   0.039 TIME LEFT:  2.00D  GRAD.:    14.919 HEAT: -78.40992
 CYCLE:    46 TIME:   0.039 TIME LEFT:  2.00D  GRAD.:    18.273 HEAT: -78.58076
 CYCLE:    47 TIME:   0.043 TIME LEFT:  2.00D  GRAD.:    26.185 HEAT: -78.69757
 CYCLE:    48 TIME:   0.039 TIME LEFT:  2.00D  GRAD.:    14.091 HEAT: -78.93570
 CYCLE:    49 TIME:   0.039 TIME LEFT:  2.00D  GRAD.:    12.603 HEAT: -79.05590
 CYCLE:    50 TIME:   0.035 TIME LEFT:  2.00D  GRAD.:    15.206 HEAT: -79.14875
 CYCLE:    51 TIME:   0.039 TIME LEFT:  2.00D  GRAD.:    29.493 HEAT: -79.14600
 CYCLE:    52 TIME:   0.035 TIME LEFT:  2.00D  GRAD.:    10.757 HEAT: -79.29731
 CYCLE:    53 TIME:   0.039 TIME LEFT:  2.00D  GRAD.:     6.732 HEAT: -79.33707
 CYCLE:    54 TIME:   0.035 TIME LEFT:  2.00D  GRAD.:     8.806 HEAT: -79.39137
 CYCLE:    55 TIME:   0.039 TIME LEFT:  2.00D  GRAD.:    12.597 HEAT: -79.41244
 CYCLE:    56 TIME:   0.039 TIME LEFT:  2.00D  GRAD.:    23.694 HEAT: -79.43104
 CYCLE:    57 TIME:   0.035 TIME LEFT:  2.00D  GRAD.:     7.745 HEAT: -79.53866
 CYCLE:    58 TIME:   0.035 TIME LEFT:  2.00D  GRAD.:     5.636 HEAT: -79.57592
 CYCLE:    59 TIME:   0.035 TIME LEFT:  2.00D  GRAD.:     6.885 HEAT: -79.62297
 CYCLE:    60 TIME:   0.039 TIME LEFT:  2.00D  GRAD.:    20.815 HEAT: -79.64724
 CYCLE:    61 TIME:   0.035 TIME LEFT:  2.00D  GRAD.:     8.128 HEAT: -79.71915
 CYCLE:    62 TIME:   0.035 TIME LEFT:  2.00D  GRAD.:     6.003 HEAT: -79.75523
 CYCLE:    63 TIME:   0.035 TIME LEFT:  2.00D  GRAD.:     8.457 HEAT: -79.79593
 CYCLE:    64 TIME:   0.043 TIME LEFT:  2.00D  GRAD.:    11.060 HEAT: -79.86344
 CYCLE:    65 TIME:   0.039 TIME LEFT:  2.00D  GRAD.:    32.483 HEAT: -79.85983
 CYCLE:    66 TIME:   0.035 TIME LEFT:  2.00D  GRAD.:     9.780 HEAT: -79.97357
 CYCLE:    67 TIME:   0.035 TIME LEFT:  2.00D  GRAD.:     7.075 HEAT: -80.01104
 CYCLE:    68 TIME:   0.035 TIME LEFT:  2.00D  GRAD.:     7.993 HEAT: -80.06925
 CYCLE:    69 TIME:   0.039 TIME LEFT:  2.00D  GRAD.:    11.392 HEAT: -80.12038
 CYCLE:    70 TIME:   0.039 TIME LEFT:  2.00D  GRAD.:    17.514 HEAT: -80.17396
 CYCLE:    71 TIME:   0.035 TIME LEFT:  2.00D  GRAD.:     7.923 HEAT: -80.23988
 CYCLE:    72 TIME:   0.039 TIME LEFT:  2.00D  GRAD.:     7.000 HEAT: -80.27978
 CYCLE:    73 TIME:   0.035 TIME LEFT:  2.00D  GRAD.:     7.821 HEAT: -80.31201
 CYCLE:    74 TIME:   0.039 TIME LEFT:  2.00D  GRAD.:    16.015 HEAT: -80.35318
 CYCLE:    75 TIME:   0.035 TIME LEFT:  2.00D  GRAD.:     7.290 HEAT: -80.40523
 CYCLE:    76 TIME:   0.035 TIME LEFT:  2.00D  GRAD.:     6.316 HEAT: -80.42986
 CYCLE:    77 TIME:   0.035 TIME LEFT:  2.00D  GRAD.:     6.813 HEAT: -80.47661
 CYCLE:    78 TIME:   0.039 TIME LEFT:  2.00D  GRAD.:    16.692 HEAT: -80.51431
 CYCLE:    79 TIME:   0.035 TIME LEFT:  2.00D  GRAD.:    10.215 HEAT: -80.56208
 CYCLE:    80 TIME:   0.039 TIME LEFT:  2.00D  GRAD.:     5.586 HEAT: -80.58976
 CYCLE:    81 TIME:   0.035 TIME LEFT:  2.00D  GRAD.:     6.602 HEAT: -80.60986
 CYCLE:    82 TIME:   0.035 TIME LEFT:  2.00D  GRAD.:     8.956 HEAT: -80.65062
 CYCLE:    83 TIME:   0.039 TIME LEFT:  2.00D  GRAD.:     7.480 HEAT: -80.69865
 CYCLE:    84 TIME:   0.035 TIME LEFT:  2.00D  GRAD.:    10.728 HEAT: -80.72886
 CYCLE:    85 TIME:   0.035 TIME LEFT:  2.00D  GRAD.:     5.847 HEAT: -80.76316
 CYCLE:    86 TIME:   0.035 TIME LEFT:  2.00D  GRAD.:     5.078 HEAT: -80.79186
 CYCLE:    87 TIME:   0.039 TIME LEFT:  2.00D  GRAD.:     8.079 HEAT: -80.81457
 CYCLE:    88 TIME:   0.035 TIME LEFT:  2.00D  GRAD.:     6.269 HEAT: -80.84694
 CYCLE:    89 TIME:   0.039 TIME LEFT:  2.00D  GRAD.:     6.360 HEAT: -80.88035
 CYCLE:    90 TIME:   0.035 TIME LEFT:  2.00D  GRAD.:     8.509 HEAT: -80.90990
 CYCLE:    91 TIME:   0.039 TIME LEFT:  2.00D  GRAD.:     7.200 HEAT: -80.93867
 CYCLE:    92 TIME:   0.035 TIME LEFT:  2.00D  GRAD.:     5.739 HEAT: -80.96193
 CYCLE:    93 TIME:   0.035 TIME LEFT:  2.00D  GRAD.:     6.899 HEAT: -80.98679
 CYCLE:    94 TIME:   0.035 TIME LEFT:  2.00D  GRAD.:     6.266 HEAT: -81.01058
 CYCLE:    95 TIME:   0.039 TIME LEFT:  2.00D  GRAD.:     7.085 HEAT: -81.02560
 CYCLE:    96 TIME:   0.039 TIME LEFT:  2.00D  GRAD.:     7.640 HEAT: -81.06795
 CYCLE:    97 TIME:   0.035 TIME LEFT:  2.00D  GRAD.:    11.210 HEAT: -81.08199
 CYCLE:    98 TIME:   0.039 TIME LEFT:  2.00D  GRAD.:     4.850 HEAT: -81.09809
 CYCLE:    99 TIME:   0.035 TIME LEFT:  2.00D  GRAD.:     4.361 HEAT: -81.10735
 CYCLE:   100 TIME:   0.035 TIME LEFT:  2.00D  GRAD.:     5.394 HEAT: -81.12216
 CYCLE:   101 TIME:   0.035 TIME LEFT:  2.00D  GRAD.:     5.684 HEAT: -81.14731
 CYCLE:   102 TIME:   0.039 TIME LEFT:  2.00D  GRAD.:     9.614 HEAT: -81.15705
 CYCLE:   103 TIME:   0.035 TIME LEFT:  2.00D  GRAD.:     6.489 HEAT: -81.18002
 CYCLE:   104 TIME:   0.035 TIME LEFT:  2.00D  GRAD.:     4.080 HEAT: -81.19835
 CYCLE:   105 TIME:   0.035 TIME LEFT:  2.00D  GRAD.:     5.073 HEAT: -81.21686
 CYCLE:   106 TIME:   0.035 TIME LEFT:  2.00D  GRAD.:     8.578 HEAT: -81.23732
 CYCLE:   107 TIME:   0.039 TIME LEFT:  2.00D  GRAD.:     6.940 HEAT: -81.25895
 CYCLE:   108 TIME:   0.039 TIME LEFT:  2.00D  GRAD.:    13.758 HEAT: -81.26989
 CYCLE:   109 TIME:   0.035 TIME LEFT:  2.00D  GRAD.:     6.372 HEAT: -81.30636
 CYCLE:   110 TIME:   0.035 TIME LEFT:  2.00D  GRAD.:     5.893 HEAT: -81.32267
 CYCLE:   111 TIME:   0.035 TIME LEFT:  2.00D  GRAD.:     8.385 HEAT: -81.35111
 CYCLE:   112 TIME:   0.039 TIME LEFT:  2.00D  GRAD.:     5.251 HEAT: -81.37850
 CYCLE:   113 TIME:   0.039 TIME LEFT:  2.00D  GRAD.:     5.646 HEAT: -81.39498
 CYCLE:   114 TIME:   0.039 TIME LEFT:  2.00D  GRAD.:     5.229 HEAT: -81.41699
 CYCLE:   115 TIME:   0.035 TIME LEFT:  2.00D  GRAD.:     6.430 HEAT: -81.45327
 CYCLE:   116 TIME:   0.039 TIME LEFT:  2.00D  GRAD.:    12.790 HEAT: -81.47294
 CYCLE:   117 TIME:   0.039 TIME LEFT:  2.00D  GRAD.:     5.907 HEAT: -81.51169
 CYCLE:   118 TIME:   0.039 TIME LEFT:  2.00D  GRAD.:     5.361 HEAT: -81.54429
 CYCLE:   119 TIME:   0.039 TIME LEFT:  2.00D  GRAD.:     8.467 HEAT: -81.58058
 CYCLE:   120 TIME:   0.039 TIME LEFT:  2.00D  GRAD.:    10.090 HEAT: -81.61929
 CYCLE:   121 TIME:   0.035 TIME LEFT:  2.00D  GRAD.:     7.728 HEAT: -81.71211
 CYCLE:   122 TIME:   0.039 TIME LEFT:  2.00D  GRAD.:     7.549 HEAT: -81.70542
 CYCLE:   123 TIME:   0.039 TIME LEFT:  2.00D  GRAD.:     9.682 HEAT: -81.79043
 CYCLE:   124 TIME:   0.035 TIME LEFT:  2.00D  GRAD.:     6.614 HEAT: -81.82154
 CYCLE:   125 TIME:   0.035 TIME LEFT:  2.00D  GRAD.:     5.978 HEAT: -81.84537
 CYCLE:   126 TIME:   0.035 TIME LEFT:  2.00D  GRAD.:     7.843 HEAT: -81.86905
 CYCLE:   127 TIME:   0.039 TIME LEFT:  2.00D  GRAD.:     7.191 HEAT: -81.88731
 CYCLE:   128 TIME:   0.035 TIME LEFT:  2.00D  GRAD.:     8.099 HEAT: -81.91631
 CYCLE:   129 TIME:   0.035 TIME LEFT:  2.00D  GRAD.:     5.904 HEAT: -81.94722
 CYCLE:   130 TIME:   0.039 TIME LEFT:  2.00D  GRAD.:     5.547 HEAT: -81.98003
 CYCLE:   131 TIME:   0.035 TIME LEFT:  2.00D  GRAD.:    14.232 HEAT: -81.98479
 CYCLE:   132 TIME:   0.035 TIME LEFT:  2.00D  GRAD.:     5.796 HEAT: -82.01450
 CYCLE:   133 TIME:   0.039 TIME LEFT:  2.00D  GRAD.:     3.962 HEAT: -82.03282
 CYCLE:   134 TIME:   0.039 TIME LEFT:  2.00D  GRAD.:     6.576 HEAT: -82.05959
 CYCLE:   135 TIME:   0.035 TIME LEFT:  2.00D  GRAD.:     7.340 HEAT: -82.09297
 CYCLE:   136 TIME:   0.039 TIME LEFT:  2.00D  GRAD.:    15.937 HEAT: -82.11304
 CYCLE:   137 TIME:   0.039 TIME LEFT:  2.00D  GRAD.:     8.144 HEAT: -82.16781
 CYCLE:   138 TIME:   0.035 TIME LEFT:  2.00D  GRAD.:     5.259 HEAT: -82.19696
 CYCLE:   139 TIME:   0.039 TIME LEFT:  2.00D  GRAD.:     7.712 HEAT: -82.22702
 CYCLE:   140 TIME:   0.039 TIME LEFT:  2.00D  GRAD.:    15.581 HEAT: -82.23852
 CYCLE:   141 TIME:   0.035 TIME LEFT:  2.00D  GRAD.:     7.146 HEAT: -82.26761
 CYCLE:   142 TIME:   0.039 TIME LEFT:  2.00D  GRAD.:     4.859 HEAT: -82.29203
 CYCLE:   143 TIME:   0.035 TIME LEFT:  2.00D  GRAD.:     5.996 HEAT: -82.31099
 CYCLE:   144 TIME:   0.039 TIME LEFT:  2.00D  GRAD.:     8.557 HEAT: -82.34309
 CYCLE:   145 TIME:   0.039 TIME LEFT:  2.00D  GRAD.:     8.931 HEAT: -82.36684
 CYCLE:   146 TIME:   0.039 TIME LEFT:  2.00D  GRAD.:     4.785 HEAT: -82.39483
 CYCLE:   147 TIME:   0.035 TIME LEFT:  2.00D  GRAD.:     5.970 HEAT: -82.41138
 CYCLE:   148 TIME:   0.035 TIME LEFT:  2.00D  GRAD.:     5.928 HEAT: -82.43208
 CYCLE:   149 TIME:   0.039 TIME LEFT:  2.00D  GRAD.:     6.481 HEAT: -82.46149
 CYCLE:   150 TIME:   0.039 TIME LEFT:  2.00D  GRAD.:    10.979 HEAT: -82.48928
 CYCLE:   151 TIME:   0.035 TIME LEFT:  2.00D  GRAD.:     5.287 HEAT: -82.52325
 CYCLE:   152 TIME:   0.039 TIME LEFT:  2.00D  GRAD.:     4.871 HEAT: -82.53784
 CYCLE:   153 TIME:   0.039 TIME LEFT:  2.00D  GRAD.:     5.401 HEAT: -82.55113
 CYCLE:   154 TIME:   0.035 TIME LEFT:  2.00D  GRAD.:     6.551 HEAT: -82.56860
 CYCLE:   155 TIME:   0.035 TIME LEFT:  2.00D  GRAD.:     5.529 HEAT: -82.58272
 CYCLE:   156 TIME:   0.035 TIME LEFT:  2.00D  GRAD.:     3.922 HEAT: -82.59322
 CYCLE:   157 TIME:   0.035 TIME LEFT:  2.00D  GRAD.:     3.661 HEAT: -82.60484
 CYCLE:   158 TIME:   0.035 TIME LEFT:  2.00D  GRAD.:     4.362 HEAT: -82.63114
 CYCLE:   159 TIME:   0.039 TIME LEFT:  2.00D  GRAD.:     9.085 HEAT: -82.65528
 CYCLE:   160 TIME:   0.035 TIME LEFT:  2.00D  GRAD.:     6.621 HEAT: -82.68106
 CYCLE:   161 TIME:   0.039 TIME LEFT:  2.00D  GRAD.:     4.423 HEAT: -82.70175
 CYCLE:   162 TIME:   0.035 TIME LEFT:  2.00D  GRAD.:     4.822 HEAT: -82.71801
 CYCLE:   163 TIME:   0.039 TIME LEFT:  2.00D  GRAD.:     5.955 HEAT: -82.74310
 CYCLE:   164 TIME:   0.039 TIME LEFT:  2.00D  GRAD.:     5.162 HEAT: -82.76901
 CYCLE:   165 TIME:   0.035 TIME LEFT:  2.00D  GRAD.:     7.633 HEAT: -82.79308
 CYCLE:   166 TIME:   0.039 TIME LEFT:  2.00D  GRAD.:     7.109 HEAT: -82.81425
 CYCLE:   167 TIME:   0.035 TIME LEFT:  2.00D  GRAD.:     4.674 HEAT: -82.83897
 CYCLE:   168 TIME:   0.039 TIME LEFT:  2.00D  GRAD.:     8.688 HEAT: -82.83614
 CYCLE:   169 TIME:   0.035 TIME LEFT:  2.00D  GRAD.:     7.405 HEAT: -82.85628
 CYCLE:   170 TIME:   0.039 TIME LEFT:  2.00D  GRAD.:     6.638 HEAT: -82.86256
 CYCLE:   171 TIME:   0.039 TIME LEFT:  2.00D  GRAD.:     5.499 HEAT: -82.87957
 CYCLE:   172 TIME:   0.035 TIME LEFT:  2.00D  GRAD.:     4.767 HEAT: -82.90098
 CYCLE:   173 TIME:   0.039 TIME LEFT:  2.00D  GRAD.:     5.076 HEAT: -82.91910
 CYCLE:   174 TIME:   0.039 TIME LEFT:  2.00D  GRAD.:     9.428 HEAT: -82.93092
 CYCLE:   175 TIME:   0.035 TIME LEFT:  2.00D  GRAD.:     5.107 HEAT: -82.95871
 CYCLE:   176 TIME:   0.039 TIME LEFT:  2.00D  GRAD.:     4.988 HEAT: -82.98198
 CYCLE:   177 TIME:   0.039 TIME LEFT:  2.00D  GRAD.:     9.842 HEAT: -82.99628
 CYCLE:   178 TIME:   0.039 TIME LEFT:  2.00D  GRAD.:     5.537 HEAT: -83.01530
 CYCLE:   179 TIME:   0.035 TIME LEFT:  2.00D  GRAD.:     6.196 HEAT: -83.03782
 CYCLE:   180 TIME:   0.039 TIME LEFT:  2.00D  GRAD.:     6.315 HEAT: -83.05540
 CYCLE:   181 TIME:   0.035 TIME LEFT:  2.00D  GRAD.:     9.818 HEAT: -83.09285
 CYCLE:   182 TIME:   0.039 TIME LEFT:  2.00D  GRAD.:     8.488 HEAT: -83.10624
 CYCLE:   183 TIME:   0.039 TIME LEFT:  2.00D  GRAD.:     8.975 HEAT: -83.12683
 CYCLE:   184 TIME:   0.035 TIME LEFT:  2.00D  GRAD.:     4.046 HEAT: -83.14280
 CYCLE:   185 TIME:   0.039 TIME LEFT:  2.00D  GRAD.:     7.228 HEAT: -83.15665
 CYCLE:   186 TIME:   0.047 TIME LEFT:  2.00D  GRAD.:     7.853 HEAT: -83.17461
 CYCLE:   187 TIME:   0.039 TIME LEFT:  2.00D  GRAD.:     6.550 HEAT: -83.20485
 CYCLE:   188 TIME:   0.035 TIME LEFT:  2.00D  GRAD.:     5.390 HEAT: -83.21828
 CYCLE:   189 TIME:   0.035 TIME LEFT:  2.00D  GRAD.:     5.025 HEAT: -83.23019
 CYCLE:   190 TIME:   0.039 TIME LEFT:  2.00D  GRAD.:     7.326 HEAT: -83.24353
 CYCLE:   191 TIME:   0.035 TIME LEFT:  2.00D  GRAD.:     5.179 HEAT: -83.26031
 CYCLE:   192 TIME:   0.035 TIME LEFT:  2.00D  GRAD.:     4.259 HEAT: -83.27270
 CYCLE:   193 TIME:   0.039 TIME LEFT:  2.00D  GRAD.:     3.424 HEAT: -83.28846
 CYCLE:   194 TIME:   0.039 TIME LEFT:  2.00D  GRAD.:     3.872 HEAT: -83.29995
 CYCLE:   195 TIME:   0.035 TIME LEFT:  2.00D  GRAD.:     4.886 HEAT: -83.31212
 CYCLE:   196 TIME:   0.039 TIME LEFT:  2.00D  GRAD.:     9.481 HEAT: -83.31747
 CYCLE:   197 TIME:   0.035 TIME LEFT:  2.00D  GRAD.:     4.387 HEAT: -83.33380
 CYCLE:   198 TIME:   0.035 TIME LEFT:  2.00D  GRAD.:     3.277 HEAT: -83.34258
 CYCLE:   199 TIME:   0.039 TIME LEFT:  2.00D  GRAD.:     3.869 HEAT: -83.35134
 CYCLE:   200 TIME:   0.039 TIME LEFT:  2.00D  GRAD.:    13.484 HEAT: -83.36268
 CYCLE:   201 TIME:   0.035 TIME LEFT:  2.00D  GRAD.:     4.901 HEAT: -83.38315
 CYCLE:   202 TIME:   0.039 TIME LEFT:  2.00D  GRAD.:     3.922 HEAT: -83.39136
 CYCLE:   203 TIME:   0.035 TIME LEFT:  2.00D  GRAD.:     3.729 HEAT: -83.40455
 CYCLE:   204 TIME:   0.039 TIME LEFT:  2.00D  GRAD.:     4.575 HEAT: -83.42756
 CYCLE:   205 TIME:   0.035 TIME LEFT:  2.00D  GRAD.:     8.846 HEAT: -83.43435
 CYCLE:   206 TIME:   0.039 TIME LEFT:  2.00D  GRAD.:     3.958 HEAT: -83.45190
 CYCLE:   207 TIME:   0.035 TIME LEFT:  2.00D  GRAD.:     3.498 HEAT: -83.46484
 CYCLE:   208 TIME:   0.039 TIME LEFT:  2.00D  GRAD.:     4.612 HEAT: -83.47785
 CYCLE:   209 TIME:   0.039 TIME LEFT:  2.00D  GRAD.:     9.876 HEAT: -83.49231
 CYCLE:   210 TIME:   0.035 TIME LEFT:  2.00D  GRAD.:     4.775 HEAT: -83.51239
 CYCLE:   211 TIME:   0.035 TIME LEFT:  2.00D  GRAD.:     3.911 HEAT: -83.52217
 CYCLE:   212 TIME:   0.039 TIME LEFT:  2.00D  GRAD.:     3.950 HEAT: -83.53083
 CYCLE:   213 TIME:   0.035 TIME LEFT:  2.00D  GRAD.:    11.267 HEAT: -83.53951
 CYCLE:   214 TIME:   0.035 TIME LEFT:  2.00D  GRAD.:     6.422 HEAT: -83.55802
 CYCLE:   215 TIME:   0.039 TIME LEFT:  2.00D  GRAD.:     4.936 HEAT: -83.57023
 CYCLE:   216 TIME:   0.035 TIME LEFT:  2.00D  GRAD.:     5.566 HEAT: -83.58810
 CYCLE:   217 TIME:   0.035 TIME LEFT:  2.00D  GRAD.:     5.707 HEAT: -83.61165
 CYCLE:   218 TIME:   0.039 TIME LEFT:  2.00D  GRAD.:    13.777 HEAT: -83.61137
 CYCLE:   219 TIME:   0.035 TIME LEFT:  2.00D  GRAD.:     3.785 HEAT: -83.63236
 CYCLE:   220 TIME:   0.039 TIME LEFT:  2.00D  GRAD.:     3.303 HEAT: -83.63839
 CYCLE:   221 TIME:   0.039 TIME LEFT:  2.00D  GRAD.:     3.369 HEAT: -83.64512
 CYCLE:   222 TIME:   0.035 TIME LEFT:  2.00D  GRAD.:     4.228 HEAT: -83.65907
 CYCLE:   223 TIME:   0.039 TIME LEFT:  2.00D  GRAD.:     3.826 HEAT: -83.66596
 CYCLE:   224 TIME:   0.039 TIME LEFT:  2.00D  GRAD.:     6.206 HEAT: -83.67506
 CYCLE:   225 TIME:   0.035 TIME LEFT:  2.00D  GRAD.:     3.134 HEAT: -83.68548
 CYCLE:   226 TIME:   0.035 TIME LEFT:  2.00D  GRAD.:     2.458 HEAT: -83.69135
 CYCLE:   227 TIME:   0.039 TIME LEFT:  2.00D  GRAD.:     4.406 HEAT: -83.69625
 CYCLE:   228 TIME:   0.035 TIME LEFT:  2.00D  GRAD.:     3.736 HEAT: -83.70409
 CYCLE:   229 TIME:   0.035 TIME LEFT:  2.00D  GRAD.:     5.284 HEAT: -83.71139
 CYCLE:   230 TIME:   0.039 TIME LEFT:  2.00D  GRAD.:     3.526 HEAT: -83.71776
 CYCLE:   231 TIME:   0.035 TIME LEFT:  2.00D  GRAD.:     3.124 HEAT: -83.72149
 CYCLE:   232 TIME:   0.039 TIME LEFT:  2.00D  GRAD.:     4.735 HEAT: -83.73245
 CYCLE:   233 TIME:   0.035 TIME LEFT:  2.00D  GRAD.:     5.396 HEAT: -83.74112
 CYCLE:   234 TIME:   0.035 TIME LEFT:  2.00D  GRAD.:     3.037 HEAT: -83.74896
 CYCLE:   235 TIME:   0.039 TIME LEFT:  2.00D  GRAD.:     3.034 HEAT: -83.75421
 CYCLE:   236 TIME:   0.035 TIME LEFT:  2.00D  GRAD.:     3.024 HEAT: -83.75983
 CYCLE:   237 TIME:   0.039 TIME LEFT:  2.00D  GRAD.:     4.072 HEAT: -83.76669
 CYCLE:   238 TIME:   0.039 TIME LEFT:  2.00D  GRAD.:     7.958 HEAT: -83.76954
 CYCLE:   239 TIME:   0.035 TIME LEFT:  2.00D  GRAD.:     3.239 HEAT: -83.78188
 CYCLE:   240 TIME:   0.047 TIME LEFT:  2.00D  GRAD.:     4.057 HEAT: -83.78668
 CYCLE:   241 TIME:   0.035 TIME LEFT:  2.00D  GRAD.:     2.562 HEAT: -83.79488
 CYCLE:   242 TIME:   0.043 TIME LEFT:  2.00D  GRAD.:     3.811 HEAT: -83.79795
 CYCLE:   243 TIME:   0.039 TIME LEFT:  2.00D  GRAD.:    12.498 HEAT: -83.78362
 CYCLE:   244 TIME:   0.035 TIME LEFT:  2.00D  GRAD.:     2.657 HEAT: -83.81495
 CYCLE:   245 TIME:   0.039 TIME LEFT:  2.00D  GRAD.:     3.388 HEAT: -83.81905
 CYCLE:   246 TIME:   0.035 TIME LEFT:  2.00D  GRAD.:     2.204 HEAT: -83.82978
 CYCLE:   247 TIME:   0.039 TIME LEFT:  2.00D  GRAD.:     6.396 HEAT: -83.83478
 CYCLE:   248 TIME:   0.039 TIME LEFT:  2.00D  GRAD.:     2.821 HEAT: -83.84377
 CYCLE:   249 TIME:   0.039 TIME LEFT:  2.00D  GRAD.:     2.808 HEAT: -83.84957
 CYCLE:   250 TIME:   0.043 TIME LEFT:  2.00D  GRAD.:     6.055 HEAT: -83.85193
 CYCLE:   251 TIME:   0.035 TIME LEFT:  2.00D  GRAD.:     8.828 HEAT: -83.85602
 CYCLE:   252 TIME:   0.039 TIME LEFT:  2.00D  GRAD.:     2.424 HEAT: -83.86324
 CYCLE:   253 TIME:   0.035 TIME LEFT:  2.00D  GRAD.:     1.750 HEAT: -83.86601
 CYCLE:   254 TIME:   0.039 TIME LEFT:  2.00D  GRAD.:     2.300 HEAT: -83.86999
 CYCLE:   255 TIME:   0.039 TIME LEFT:  2.00D  GRAD.:     2.935 HEAT: -83.87518
 CYCLE:   256 TIME:   0.039 TIME LEFT:  2.00D  GRAD.:     6.572 HEAT: -83.87625
 CYCLE:   257 TIME:   0.035 TIME LEFT:  2.00D  GRAD.:     2.303 HEAT: -83.88541
 CYCLE:   258 TIME:   0.039 TIME LEFT:  2.00D  GRAD.:     2.380 HEAT: -83.88844
 CYCLE:   259 TIME:   0.035 TIME LEFT:  2.00D  GRAD.:     1.986 HEAT: -83.89221
 CYCLE:   260 TIME:   0.039 TIME LEFT:  2.00D  GRAD.:     7.416 HEAT: -83.89638
 CYCLE:   261 TIME:   0.035 TIME LEFT:  2.00D  GRAD.:     3.176 HEAT: -83.90403
 CYCLE:   262 TIME:   0.035 TIME LEFT:  2.00D  GRAD.:     1.883 HEAT: -83.90658
 CYCLE:   263 TIME:   0.035 TIME LEFT:  2.00D  GRAD.:     1.361 HEAT: -83.91013
 CYCLE:   264 TIME:   0.043 TIME LEFT:  2.00D  GRAD.:     2.397 HEAT: -83.91528
 CYCLE:   265 TIME:   0.035 TIME LEFT:  2.00D  GRAD.:     4.903 HEAT: -83.91723
 CYCLE:   266 TIME:   0.035 TIME LEFT:  2.00D  GRAD.:     1.917 HEAT: -83.92055
 CYCLE:   267 TIME:   0.035 TIME LEFT:  2.00D  GRAD.:     1.249 HEAT: -83.92191
 CYCLE:   268 TIME:   0.039 TIME LEFT:  2.00D  GRAD.:     1.299 HEAT: -83.92310
 CYCLE:   269 TIME:   0.039 TIME LEFT:  2.00D  GRAD.:     1.642 HEAT: -83.92520
 CYCLE:   270 TIME:   0.039 TIME LEFT:  2.00D  GRAD.:     3.710 HEAT: -83.92568
 CYCLE:   271 TIME:   0.035 TIME LEFT:  2.00D  GRAD.:     1.271 HEAT: -83.92816
 CYCLE:   272 TIME:   0.035 TIME LEFT:  2.00D  GRAD.:     1.150 HEAT: -83.92909
 CYCLE:   273 TIME:   0.039 TIME LEFT:  2.00D  GRAD.:     1.488 HEAT: -83.93065
 CYCLE:   274 TIME:   0.039 TIME LEFT:  2.00D  GRAD.:     3.520 HEAT: -83.93303
 CYCLE:   275 TIME:   0.039 TIME LEFT:  2.00D  GRAD.:     2.052 HEAT: -83.93581
 CYCLE:   276 TIME:   0.035 TIME LEFT:  2.00D  GRAD.:     1.522 HEAT: -83.93769
 CYCLE:   277 TIME:   0.039 TIME LEFT:  2.00D  GRAD.:     2.168 HEAT: -83.94067
 CYCLE:   278 TIME:   0.039 TIME LEFT:  2.00D  GRAD.:     3.145 HEAT: -83.94319
 CYCLE:   279 TIME:   0.035 TIME LEFT:  2.00D  GRAD.:     1.738 HEAT: -83.94563
 CYCLE:   280 TIME:   0.035 TIME LEFT:  2.00D  GRAD.:     1.486 HEAT: -83.94708
 CYCLE:   281 TIME:   0.039 TIME LEFT:  2.00D  GRAD.:     2.575 HEAT: -83.94924
 CYCLE:   282 TIME:   0.035 TIME LEFT:  2.00D  GRAD.:     1.710 HEAT: -83.95112
 CYCLE:   283 TIME:   0.039 TIME LEFT:  2.00D  GRAD.:     1.692 HEAT: -83.95207
 CYCLE:   284 TIME:   0.035 TIME LEFT:  2.00D  GRAD.:     1.645 HEAT: -83.95380
 CYCLE:   285 TIME:   0.035 TIME LEFT:  2.00D  GRAD.:     1.907 HEAT: -83.95611
 CYCLE:   286 TIME:   0.039 TIME LEFT:  2.00D  GRAD.:     1.561 HEAT: -83.95765
 CYCLE:   287 TIME:   0.043 TIME LEFT:  2.00D  GRAD.:     1.640 HEAT: -83.96034
 CYCLE:   288 TIME:   0.039 TIME LEFT:  2.00D  GRAD.:     3.098 HEAT: -83.96334
 CYCLE:   289 TIME:   0.035 TIME LEFT:  2.00D  GRAD.:     1.989 HEAT: -83.96646
 CYCLE:   290 TIME:   0.039 TIME LEFT:  2.00D  GRAD.:     1.971 HEAT: -83.96887
 CYCLE:   291 TIME:   0.039 TIME LEFT:  2.00D  GRAD.:     2.290 HEAT: -83.97338
 CYCLE:   292 TIME:   0.039 TIME LEFT:  2.00D  GRAD.:     4.395 HEAT: -83.97531
 CYCLE:   293 TIME:   0.035 TIME LEFT:  2.00D  GRAD.:     1.640 HEAT: -83.97988
 CYCLE:   294 TIME:   0.039 TIME LEFT:  2.00D  GRAD.:     1.440 HEAT: -83.98190
 CYCLE:   295 TIME:   0.039 TIME LEFT:  2.00D  GRAD.:     2.094 HEAT: -83.98436
 CYCLE:   296 TIME:   0.039 TIME LEFT:  2.00D  GRAD.:     3.485 HEAT: -83.98614
 CYCLE:   297 TIME:   0.035 TIME LEFT:  2.00D  GRAD.:     2.269 HEAT: -83.98827
 CYCLE:   298 TIME:   0.035 TIME LEFT:  2.00D  GRAD.:     1.593 HEAT: -83.99013
 CYCLE:   299 TIME:   0.039 TIME LEFT:  2.00D  GRAD.:     1.781 HEAT: -83.99234
 CYCLE:   300 TIME:   0.035 TIME LEFT:  2.00D  GRAD.:     2.551 HEAT: -83.99469
 CYCLE:   301 TIME:   0.039 TIME LEFT:  2.00D  GRAD.:     2.358 HEAT: -83.99783
 CYCLE:   302 TIME:   0.039 TIME LEFT:  2.00D  GRAD.:     3.871 HEAT: -83.99893
 CYCLE:   303 TIME:   0.039 TIME LEFT:  2.00D  GRAD.:     1.852 HEAT: -84.00096
 CYCLE:   304 TIME:   0.035 TIME LEFT:  2.00D  GRAD.:     1.817 HEAT: -84.00249
 CYCLE:   305 TIME:   0.039 TIME LEFT:  2.00D  GRAD.:     1.847 HEAT: -84.00423
 CYCLE:   306 TIME:   0.039 TIME LEFT:  2.00D  GRAD.:     2.242 HEAT: -84.00770
 CYCLE:   307 TIME:   0.035 TIME LEFT:  2.00D  GRAD.:     2.591 HEAT: -84.00963
 CYCLE:   308 TIME:   0.039 TIME LEFT:  2.00D  GRAD.:     3.945 HEAT: -84.00986
 CYCLE:   309 TIME:   0.035 TIME LEFT:  2.00D  GRAD.:     2.100 HEAT: -84.01123
 CYCLE:   310 TIME:   0.039 TIME LEFT:  2.00D  GRAD.:     1.903 HEAT: -84.01561
 CYCLE:   311 TIME:   0.043 TIME LEFT:  2.00D  GRAD.:     2.522 HEAT: -84.01389
 CYCLE:   312 TIME:   0.039 TIME LEFT:  2.00D  GRAD.:     7.740 HEAT: -84.01098
 CYCLE:   313 TIME:   0.035 TIME LEFT:  2.00D  GRAD.:     7.865 HEAT: -84.01179
 CYCLE:   314 TIME:   0.039 TIME LEFT:  2.00D  GRAD.:     0.967 HEAT: -84.01907

 -------------------------------------------------------------------------------
 PM7 XYZ

 Lipophilicity_1479 - geometry optimisation


     HERBERTS TEST WAS SATISFIED IN BFGS                      
     SCF FIELD WAS ACHIEVED                                   


                              PM7 CALCULATION
                                                       MOPAC v23.0.3 Linux
                                                       Fri Jul 25 17:18:17 2025




          FINAL HEAT OF FORMATION =        -84.01907 KCAL/MOL =    -351.53580 KJ/MOL


          COSMO AREA              =        365.88 SQUARE ANGSTROMS
          COSMO VOLUME            =        448.07 CUBIC ANGSTROMS

          GRADIENT NORM           =          0.96722          =       0.13413 PER ATOM
          IONIZATION POTENTIAL    =          8.670439 EV
          HOMO LUMO ENERGIES (EV) =         -8.670 -0.237
          NO. OF FILLED LEVELS    =         72
          MOLECULAR WEIGHT        =        372.4415         POINT GROUP:  C1  

          MOLECULAR DIMENSIONS (Angstroms)

            Atom       Atom       Distance
            H    46    F     1    13.70766
            N    27    H    31     7.27145
            H    36    H    51     5.47939


          SCF CALCULATIONS        =        315

          WALL-CLOCK TIME         =     11.844 SECONDS
          COMPUTATION TIME        =          3 MINUTES AND 56.215 SECONDS




   ATOM   CHEMICAL          X               Y               Z
  NUMBER   SYMBOL      (ANGSTROMS)     (ANGSTROMS)     (ANGSTROMS)

     1       F          6.25054109  *   4.24565304  *  -2.41754768  *
     2       C          5.19422509  *   3.60922060  *  -1.93081026  *
     3       C          3.96559018  *   3.75914364  *  -2.57407125  *
     4       C          2.86247313  *   3.09465810  *  -2.05873103  *
     5       C          2.98549041  *   2.28341137  *  -0.90946811  *
     6       C          4.23822988  *   2.15893941  *  -0.28488639  *
     7       C          5.35152673  *   2.81876389  *  -0.79701622  *
     8       N          1.85101889  *   1.54592833  *  -0.49980707  *
     9       C          2.00970206  *   0.66009809  *   0.66647109  *
    10       C          0.78806551  *  -0.28878250  *   0.74777606  *
    11       N         -0.47821852  *   0.45469489  *   0.71729335  *
    12       C         -0.32912512  *   1.92044165  *   0.69793545  *
    13       C          0.58073680  *   2.31166756  *  -0.48297598  *
    14       C         -1.66945776  *  -0.04263968  *   1.24711372  *
    15       O         -2.48655360  *   0.75474695  *   1.66379045  *
    16       C         -2.03809362  *  -1.51676605  *   1.17528194  *
    17       C         -1.49515264  *  -2.27411475  *   2.39224433  *
    18       C         -2.16170120  *  -3.65843671  *   2.49977999  *
    19       C         -2.81544448  *  -4.09627030  *   1.18145591  *
    20       C         -1.93615469  *  -3.75147196  *  -0.02341427  *
    21       C         -1.63403495  *  -2.24051154  *  -0.11842938  *
    22       C         -2.39949523  *  -1.62546762  *  -1.28294864  *
    23       O         -3.47383244  *  -2.01262944  *  -1.68373735  *
    24       N         -1.72837002  *  -0.59256613  *  -1.93166878  *
    25       C         -2.42160958  *   0.17113928  *  -2.97061795  *
    26       C         -2.54614604  *   1.56921474  *  -2.58166897  *
    27       N         -2.61786782  *   2.67850214  *  -2.26533044  *
    28       H          3.87152776  *   4.38045740  *  -3.46468451  *
    29       H          1.90024908  *   3.18615167  *  -2.56073410  *
    30       H          4.35998806  *   1.55522775  *   0.61004419  *
    31       H          6.32180774  *   2.71887593  *  -0.31111020  *
    32       H          2.13649432  *   1.22052140  *   1.61834921  *
    33       H          2.92257382  *   0.03571761  *   0.52199297  *
    34       H          0.86846953  *  -0.90819661  *   1.66843803  *
    35       H          0.81546887  *  -0.97892385  *  -0.13184326  *
    36       H          0.06677507  *   2.30148760  *   1.66352062  *
    37       H         -1.33541224  *   2.39698960  *   0.56615709  *
    38       H          0.06520231  *   2.09063753  *  -1.44763145  *
    39       H          0.75439598  *   3.41112942  *  -0.45440885  *
    40       H         -3.17085849  *  -1.52935348  *   1.23857709  *
    41       H         -1.68164799  *  -1.69292491  *   3.31677851  *
    42       H         -0.39911841  *  -2.39091500  *   2.31790097  *
    43       H         -2.92614201  *  -3.64716658  *   3.29964500  *
    44       H         -1.41070536  *  -4.40638196  *   2.81357824  *
    45       H         -3.80981836  *  -3.61820578  *   1.06628151  *
    46       H         -3.01689214  *  -5.18350687  *   1.20260764  *
    47       H         -0.98554999  *  -4.31305042  *   0.03921693  *
    48       H         -2.43346418  *  -4.10070061  *  -0.95226449  *
    49       H         -0.53510104  *  -2.13199563  *  -0.29536317  *
    50       H         -0.94173866  *  -0.13324465  *  -1.48174102  *
    51       H         -1.84540137  *   0.07950352  *  -3.93135327  *
    52       H         -3.43775652  *  -0.27965088  *  -3.17210864  *

                             CARTESIAN COORDINATES

   1    F        6.250541086     4.245653040    -2.417547678
   2    C        5.194225095     3.609220605    -1.930810265
   3    C        3.965590184     3.759143645    -2.574071249
   4    C        2.862473133     3.094658101    -2.058731029
   5    C        2.985490408     2.283411369    -0.909468109
   6    C        4.238229875     2.158939413    -0.284886388
   7    C        5.351526727     2.818763893    -0.797016218
   8    N        1.851018894     1.545928330    -0.499807067
   9    C        2.009702064     0.660098090     0.666471093
  10    C        0.788065513    -0.288782500     0.747776055
  11    N       -0.478218519     0.454694886     0.717293352
  12    C       -0.329125122     1.920441652     0.697935453
  13    C        0.580736798     2.311667563    -0.482975981
  14    C       -1.669457760    -0.042639678     1.247113724
  15    O       -2.486553596     0.754746952     1.663790453
  16    C       -2.038093617    -1.516766045     1.175281942
  17    C       -1.495152640    -2.274114754     2.392244328
  18    C       -2.161701201    -3.658436709     2.499779989
  19    C       -2.815444485    -4.096270295     1.181455913
  20    C       -1.936154692    -3.751471960    -0.023414268
  21    C       -1.634034953    -2.240511544    -0.118429378
  22    C       -2.399495228    -1.625467619    -1.282948635
  23    O       -3.473832441    -2.012629437    -1.683737349
  24    N       -1.728370016    -0.592566133    -1.931668784
  25    C       -2.421609584     0.171139279    -2.970617947
  26    C       -2.546146035     1.569214738    -2.581668975
  27    N       -2.617867820     2.678502136    -2.265330442
  28    H        3.871527757     4.380457405    -3.464684513
  29    H        1.900249079     3.186151668    -2.560734101
  30    H        4.359988059     1.555227752     0.610044192
  31    H        6.321807738     2.718875932    -0.311110203
  32    H        2.136494323     1.220521402     1.618349213
  33    H        2.922573822     0.035717609     0.521992968
  34    H        0.868469533    -0.908196614     1.668438033
  35    H        0.815468872    -0.978923848    -0.131843263
  36    H        0.066775069     2.301487599     1.663520616
  37    H       -1.335412244     2.396989600     0.566157086
  38    H        0.065202309     2.090637531    -1.447631448
  39    H        0.754395978     3.411129418    -0.454408849
  40    H       -3.170858493    -1.529353485     1.238577089
  41    H       -1.681647990    -1.692924906     3.316778510
  42    H       -0.399118412    -2.390914998     2.317900967
  43    H       -2.926142006    -3.647166578     3.299644997
  44    H       -1.410705355    -4.406381963     2.813578243
  45    H       -3.809818359    -3.618205782     1.066281508
  46    H       -3.016892141    -5.183506867     1.202607643
  47    H       -0.985549990    -4.313050425     0.039216925
  48    H       -2.433464178    -4.100700610    -0.952264489
  49    H       -0.535101036    -2.131995628    -0.295363167
  50    H       -0.941738660    -0.133244651    -1.481741022
  51    H       -1.845401369     0.079503516    -3.931353272
  52    H       -3.437756515    -0.279650881    -3.172108645


           Empirical Formula: C20 H25 N4 O2 F  =    52 atoms



      MOLECULAR POINT GROUP   :   C1  


                  EIGENVALUES  
 -40.99594 -37.54622 -36.92044 -35.86099 -35.15344 -31.27544 -30.69122 -30.47684
 -30.24479 -27.64939 -27.34063 -26.94103 -26.39258 -26.13885 -25.80234 -24.80348
 -23.46319 -22.82226 -22.19702 -21.16819 -21.13737 -20.78636 -20.57755 -19.33775
 -19.10009 -18.86102 -18.42479 -17.92781 -17.88917 -17.66159 -17.22550 -16.81219
 -16.63179 -16.54487 -16.42953 -16.32632 -15.92289 -15.54719 -15.30721 -15.17677
 -14.97010 -14.84837 -14.83496 -14.63230 -14.56970 -14.18804 -14.02513 -13.90719
 -13.81395 -13.70725 -13.65371 -13.61289 -13.45325 -13.37666 -13.29288 -13.28778
 -13.06509 -12.83074 -12.78882 -12.55984 -12.50750 -12.12157 -11.87559 -11.74612
 -11.28112 -10.78784 -10.70388 -10.54632 -10.35485 -10.23607  -9.73160  -8.67044
  -0.23659  -0.04788   0.57674   0.72067   0.99567   1.02047   1.22943   1.83758
   1.91310   2.17257   2.64217   2.69094   2.80392   3.01686   3.04178   3.24707
   3.30216   3.54231   3.58420   3.68414   3.75274   3.95476   4.03273   4.10941
   4.13944   4.27997   4.34921   4.41264   4.50373   4.56585   4.58668   4.66898
   4.72789   4.75888   4.82325   4.88286   4.96904   5.03515   5.10829   5.12254
   5.22159   5.24023   5.32231   5.36116   5.47012   5.54725   5.55130   5.56180
   5.60470   5.60868   5.66592   5.76386   5.80551   5.83989   5.87994   5.94156
   5.96038   6.18801   6.26431   6.29623   6.42036


              NET ATOMIC CHARGES AND DIPOLE CONTRIBUTIONS

  ATOM NO.   TYPE          CHARGE      No. of ELECS.   s-Pop       p-Pop       
    1          F          -0.170775        7.1708     1.96615     5.20462
    2          C           0.129978        3.8700     1.08835     2.78167
    3          C          -0.156499        4.1565     1.08290     3.07360
    4          C          -0.206958        4.2070     1.07841     3.12855
    5          C           0.184618        3.8154     1.06251     2.75287
    6          C          -0.239361        4.2394     1.07588     3.16348
    7          C          -0.156256        4.1563     1.08192     3.07433
    8          N          -0.426470        5.4265     1.62552     3.80095
    9          C          -0.105664        4.1057     1.07129     3.03437
   10          C          -0.074721        4.0747     1.07185     3.00287
   11          N          -0.527713        5.5277     1.60046     3.92725
   12          C          -0.093595        4.0936     1.07109     3.02251
   13          C          -0.107992        4.1080     1.07598     3.03201
   14          C           0.542173        3.4578     1.10357     2.35426
   15          O          -0.508237        6.5082     1.88145     4.62678
   16          C          -0.189077        4.1891     1.07598     3.11309
   17          C          -0.257665        4.2577     1.06004     3.19763
   18          C          -0.260776        4.2608     1.05935     3.20143
   19          C          -0.260573        4.2606     1.05820     3.20237
   20          C          -0.251830        4.2518     1.06043     3.19140
   21          C          -0.191581        4.1916     1.07675     3.11483
   22          C           0.568400        3.4316     1.09617     2.33543
   23          O          -0.510609        6.5106     1.87914     4.63147
   24          N          -0.605465        5.6055     1.58184     4.02363
   25          C          -0.052461        4.0525     1.05000     3.00246
   26          C           0.077697        3.9223     1.13009     2.79222
   27          N          -0.236140        5.2361     1.83040     3.40574
   28          H           0.172987        0.8270     0.82701
   29          H           0.168282        0.8317     0.83172
   30          H           0.157486        0.8425     0.84251
   31          H           0.170612        0.8294     0.82939
   32          H           0.135031        0.8650     0.86497
   33          H           0.153368        0.8466     0.84663
   34          H           0.136502        0.8635     0.86350
   35          H           0.148542        0.8515     0.85146
   36          H           0.142455        0.8575     0.85755
   37          H           0.188082        0.8119     0.81192
   38          H           0.153012        0.8470     0.84699
   39          H           0.148466        0.8515     0.85153
   40          H           0.202087        0.7979     0.79791
   41          H           0.149805        0.8502     0.85019
   42          H           0.131991        0.8680     0.86801
   43          H           0.139068        0.8609     0.86093
   44          H           0.132932        0.8671     0.86707
   45          H           0.152890        0.8471     0.84711
   46          H           0.134605        0.8654     0.86539
   47          H           0.135776        0.8642     0.86422
   48          H           0.160185        0.8398     0.83981
   49          H           0.156181        0.8438     0.84382
   50          H           0.332440        0.6676     0.66756
   51          H           0.175736        0.8243     0.82426
   52          H           0.209028        0.7910     0.79097
 DIPOLE           X         Y         Z       TOTAL
 POINT-CHG.     2.910    -4.661     1.474     5.689
 HYBRID         0.529     0.682     0.621     1.064
 SUM            3.439    -3.979     2.095     5.661


          ATOMIC ORBITAL ELECTRON POPULATIONS

     Atom    s        px        py        pz   
    1  F   1.96615   1.51818   1.80518   1.88126
    2  C   1.08835   0.85598   0.96070   0.96499
    3  C   1.08290   0.97771   1.03411   1.06178
    4  C   1.07841   1.07607   1.03845   1.01402
    5  C   1.06251   0.88860   0.90744   0.95683
    6  C   1.07588   0.98847   1.09096   1.08404
    7  C   1.08192   1.06859   0.99730   1.00844
    8  N   1.62552   1.09379   1.30764   1.39952
    9  C   1.07129   1.05421   1.00628   0.97388
   10  C   1.07185   0.85159   1.00674   1.14453
   11  N   1.60046   1.13458   1.13235   1.66032
   12  C   1.07109   1.12839   0.82801   1.06611
   13  C   1.07598   0.89254   1.05764   1.08183
   14  C   1.10357   0.76792   0.87666   0.70968
   15  O   1.88145   1.54331   1.61070   1.47278
   16  C   1.07598   1.16084   0.95776   0.99449
   17  C   1.06004   1.10800   1.03375   1.05588
   18  C   1.05935   1.11572   1.02711   1.05859
   19  C   1.05820   1.08651   1.13683   0.97903
   20  C   1.06043   1.12014   0.97762   1.09363
   21  C   1.07675   1.10650   1.02558   0.98275
   22  C   1.09617   0.78736   0.76312   0.78495
   23  O   1.87914   1.29991   1.67193   1.65963
   24  N   1.58184   1.32548   1.33671   1.36144
   25  C   1.05000   1.13479   0.88351   0.98416
   26  C   1.13009   0.92516   0.93382   0.93324
   27  N   1.83040   1.09812   1.21840   1.08922
   28  H   0.82701
   29  H   0.83172
   30  H   0.84251
   31  H   0.82939
   32  H   0.86497
   33  H   0.84663
   34  H   0.86350
   35  H   0.85146
   36  H   0.85755
   37  H   0.81192
   38  H   0.84699
   39  H   0.85153
   40  H   0.79791
   41  H   0.85019
   42  H   0.86801
   43  H   0.86093
   44  H   0.86707
   45  H   0.84711
   46  H   0.86539
   47  H   0.86422
   48  H   0.83981
   49  H   0.84382
   50  H   0.66756
   51  H   0.82426
   52  H   0.79097

 **********************
 *                    *
 * JOB ENDED NORMALLY *
 *                    *
 **********************



 TOTAL JOB TIME:            11.84 SECONDS

 == MOPAC DONE ==
