 *******************************************************************************
 **                                                                           **
 **                              MOPAC v23.0.3                                **
 **                                                                           **
 *******************************************************************************
 **          Digital Object Identifier (DOI): 10.5281/zenodo.6511958          **
 **    Visit the DOI location for information on how to cite this program.    **
 *******************************************************************************

                              PM7 CALCULATION RESULTS

 *******************************************************************************
 *  CALCULATION DONE:                                Fri Jul 25 16:17:07 2025  *
 *  PM7        - The PM7 Hamiltonian to be used
 *  XYZ        - CARTESIAN COORDINATE SYSTEM TO BE USED
 *  T=         - A TIME OF 172800.0 SECONDS REQUESTED
 *  DUMP=N     - RESTART FILE WRITTEN EVERY 7200.0 SECONDS REQUESTED
 *******************************************************************************
PM7 XYZ

 Lipophilicity_1126 - geometry optimisation
   ATOM   CHEMICAL          X               Y               Z
  NUMBER   SYMBOL      (ANGSTROMS)     (ANGSTROMS)     (ANGSTROMS)

     1       C          9.00888300  *   0.03946700  *   1.39965700  *
     2       N          8.90144200  *  -0.49330200  *   0.03315600  *
     3       C          7.55202700  *  -0.42207100  *  -0.56820600  *
     4       C          6.54141900  *  -1.39823400  *   0.05537700  *
     5       C          5.20788500  *  -0.66015500  *   0.07353700  *
     6       N          5.50566200  *   0.73606900  *  -0.20939000  *
     7       C          6.90720700  *   0.96713400  *  -0.52490600  *
     8       C          4.50210500  *   1.74992500  *  -0.42029600  *
     9       O          4.84478700  *   2.87950000  *  -0.86252000  *
    10       C          3.06780700  *   1.49363900  *  -0.18260700  *
    11       C          2.61077300  *   1.01076200  *   1.05445700  *
    12       C          1.24758700  *   0.77023800  *   1.25693500  *
    13       C          0.32070800  *   1.01739600  *   0.23357300  *
    14       N         -1.07667600  *   0.77168900  *   0.47219200  *
    15       C         -2.01331300  *   0.39917000  *  -0.54797700  *
    16       N         -1.58403100  *  -0.11826000  *  -1.73253300  *
    17       C         -2.46452400  *  -0.48147500  *  -2.70092800  *
    18       C         -3.83310300  *  -0.34026700  *  -2.48285800  *
    19       C         -4.26466200  *   0.15338500  *  -1.24876100  *
    20       N         -3.34724400  *   0.51685800  *  -0.31261200  *
    21       C         -5.69950300  *   0.33368100  *  -0.98332100  *
    22       C         -6.54227700  *   1.09394700  *  -1.76471900  *
    23       N         -7.78125800  *   1.07025300  *  -1.24094900  *
    24       C         -7.66816500  *   0.28477600  *  -0.14771900  *
    25       C         -8.83966800  *  -0.02142800  *   0.73382700  *
    26       N         -6.41448700  *  -0.20516600  *   0.03384300  *
    27       C         -5.99621000  *  -1.14054100  *   1.09795000  *
    28       C         -5.09202400  *  -2.26385700  *   0.57318000  *
    29       C         -5.35607900  *  -0.38890800  *   2.26752200  *
    30       C          0.77483100  *   1.56144400  *  -0.98150500  *
    31       C          2.13741300  *   1.79181200  *  -1.18892200  *
    32       H          9.81400700  *  -0.48904800  *   1.94992100  *
    33       H          8.06629900  *  -0.06089700  *   1.97692800  *
    34       H          9.29496800  *   1.11035700  *   1.35473400  *
    35       H          9.20085100  *  -1.49715900  *   0.03979900  *
    36       H          7.64975300  *  -0.70153800  *  -1.64027500  *
    37       H          6.82667000  *  -1.68970300  *   1.08934100  *
    38       H          6.46595500  *  -2.32927700  *  -0.54714100  *
    39       H          4.74067400  *  -0.76561600  *   1.07170400  *
    40       H          4.52897700  *  -1.06472300  *  -0.70857400  *
    41       H          7.00146900  *   1.45426200  *  -1.52191800  *
    42       H          7.34383700  *   1.64183600  *   0.23927600  *
    43       H          3.30307900  *   0.83726800  *   1.86896300  *
    44       H          0.91275600  *   0.38562600  *   2.21397800  *
    45       H         -1.43012800  *   0.82497600  *   1.45682800  *
    46       H         -2.10076100  *  -0.88102700  *  -3.63781700  *
    47       H         -4.54048700  *  -0.62790800  *  -3.25098400  *
    48       H         -6.26893000  *   1.64614100  *  -2.65535300  *
    49       H         -9.68492600  *   0.65575000  *   0.49573500  *
    50       H         -8.56060700  *   0.12686800  *   1.79648600  *
    51       H         -9.16285000  *  -1.06948000  *   0.57427700  *
    52       H         -6.89876400  *  -1.65235300  *   1.49780000  *
    53       H         -5.10260400  *  -3.11295900  *   1.28522400  *
    54       H         -5.46029600  *  -2.62475500  *  -0.40976600  *
    55       H         -4.03680800  *  -1.93013200  *   0.46797800  *
    56       H         -5.20868900  *  -1.07959000  *   3.12527000  *
    57       H         -6.02413800  *   0.43393400  *   2.59790800  *
    58       H         -4.37358200  *   0.03708100  *   1.98787200  *
    59       H          0.07911000  *   1.82661300  *  -1.76569900  *
    60       H          2.46785700  *   2.19705000  *  -2.13697000  *



          CARTESIAN COORDINATES 

    NO.       ATOM           X           Y           Z

     1         C          9.0089      0.0395      1.3997
     2         N          8.9014     -0.4933      0.0332
     3         C          7.5520     -0.4221     -0.5682
     4         C          6.5414     -1.3982      0.0554
     5         C          5.2079     -0.6602      0.0735
     6         N          5.5057      0.7361     -0.2094
     7         C          6.9072      0.9671     -0.5249
     8         C          4.5021      1.7499     -0.4203
     9         O          4.8448      2.8795     -0.8625
    10         C          3.0678      1.4936     -0.1826
    11         C          2.6108      1.0108      1.0545
    12         C          1.2476      0.7702      1.2569
    13         C          0.3207      1.0174      0.2336
    14         N         -1.0767      0.7717      0.4722
    15         C         -2.0133      0.3992     -0.5480
    16         N         -1.5840     -0.1183     -1.7325
    17         C         -2.4645     -0.4815     -2.7009
    18         C         -3.8331     -0.3403     -2.4829
    19         C         -4.2647      0.1534     -1.2488
    20         N         -3.3472      0.5169     -0.3126
    21         C         -5.6995      0.3337     -0.9833
    22         C         -6.5423      1.0939     -1.7647
    23         N         -7.7813      1.0703     -1.2409
    24         C         -7.6682      0.2848     -0.1477
    25         C         -8.8397     -0.0214      0.7338
    26         N         -6.4145     -0.2052      0.0338
    27         C         -5.9962     -1.1405      1.0979
    28         C         -5.0920     -2.2639      0.5732
    29         C         -5.3561     -0.3889      2.2675
    30         C          0.7748      1.5614     -0.9815
    31         C          2.1374      1.7918     -1.1889
    32         H          9.8140     -0.4890      1.9499
    33         H          8.0663     -0.0609      1.9769
    34         H          9.2950      1.1104      1.3547
    35         H          9.2009     -1.4972      0.0398
    36         H          7.6498     -0.7015     -1.6403
    37         H          6.8267     -1.6897      1.0893
    38         H          6.4660     -2.3293     -0.5471
    39         H          4.7407     -0.7656      1.0717
    40         H          4.5290     -1.0647     -0.7086
    41         H          7.0015      1.4543     -1.5219
    42         H          7.3438      1.6418      0.2393
    43         H          3.3031      0.8373      1.8690
    44         H          0.9128      0.3856      2.2140
    45         H         -1.4301      0.8250      1.4568
    46         H         -2.1008     -0.8810     -3.6378
    47         H         -4.5405     -0.6279     -3.2510
    48         H         -6.2689      1.6461     -2.6554
    49         H         -9.6849      0.6558      0.4957
    50         H         -8.5606      0.1269      1.7965
    51         H         -9.1629     -1.0695      0.5743
    52         H         -6.8988     -1.6524      1.4978
    53         H         -5.1026     -3.1130      1.2852
    54         H         -5.4603     -2.6248     -0.4098
    55         H         -4.0368     -1.9301      0.4680
    56         H         -5.2087     -1.0796      3.1253
    57         H         -6.0241      0.4339      2.5979
    58         H         -4.3736      0.0371      1.9879
    59         H          0.0791      1.8266     -1.7657
    60         H          2.4679      2.1970     -2.1370

 General Reference for PM7:
 "Optimization of Parameters for Semiempirical Methods VI: More Modifications to the 
 NDDO Approximations and Re-optimization of Parameters", J. J. P. Stewart, J. Mol. Mod., 1:32, 19 (2013)
 https://link.springer.com/article/10.1007/s00894-012-1667-x

           Empirical Formula: C23 H29 N7 O  =    60 atoms



      MOLECULAR POINT GROUP   :   C1  


      RHF CALCULATION, NO. OF DOUBLY OCCUPIED LEVELS = 81


          Geometry optimization using L-BFGS
 CYCLE:     1 TIME:   0.090 TIME LEFT:  2.00D  GRAD.:   237.016 HEAT:  64.61622
 CYCLE:     2 TIME:   0.047 TIME LEFT:  2.00D  GRAD.:   231.201 HEAT:  64.06131
 CYCLE:     3 TIME:   0.051 TIME LEFT:  2.00D  GRAD.:    61.694 HEAT:  51.13178
 CYCLE:     4 TIME:   0.055 TIME LEFT:  2.00D  GRAD.:   231.516 HEAT:  64.05767
 CYCLE:     5 TIME:   0.055 TIME LEFT:  2.00D  GRAD.:    61.871 HEAT:  51.13381
 CYCLE:     6 TIME:   0.043 TIME LEFT:  2.00D  GRAD.:    48.725 HEAT:  49.85966
 CYCLE:     7 TIME:   0.051 TIME LEFT:  2.00D  GRAD.:    46.066 HEAT:  47.55364
 CYCLE:     8 TIME:   0.051 TIME LEFT:  2.00D  GRAD.:    63.912 HEAT:  46.62350
 CYCLE:     9 TIME:   0.047 TIME LEFT:  2.00D  GRAD.:    32.625 HEAT:  45.81364
 CYCLE:    10 TIME:   0.043 TIME LEFT:  2.00D  GRAD.:    22.946 HEAT:  45.17149
 CYCLE:    11 TIME:   0.051 TIME LEFT:  2.00D  GRAD.:    22.720 HEAT:  44.85523
 CYCLE:    12 TIME:   0.051 TIME LEFT:  2.00D  GRAD.:    27.509 HEAT:  44.26758
 CYCLE:    13 TIME:   0.051 TIME LEFT:  2.00D  GRAD.:    45.760 HEAT:  44.37528
 CYCLE:    14 TIME:   0.047 TIME LEFT:  2.00D  GRAD.:    11.417 HEAT:  43.93471
 CYCLE:    15 TIME:   0.043 TIME LEFT:  2.00D  GRAD.:     9.085 HEAT:  43.86230
 CYCLE:    16 TIME:   0.047 TIME LEFT:  2.00D  GRAD.:    12.697 HEAT:  43.66844
 CYCLE:    17 TIME:   0.047 TIME LEFT:  2.00D  GRAD.:    15.882 HEAT:  43.49022
 CYCLE:    18 TIME:   0.051 TIME LEFT:  2.00D  GRAD.:    24.849 HEAT:  43.34371
 CYCLE:    19 TIME:   0.055 TIME LEFT:  2.00D  GRAD.:     9.807 HEAT:  43.15109
 CYCLE:    20 TIME:   0.051 TIME LEFT:  2.00D  GRAD.:     9.862 HEAT:  43.06518
 CYCLE:    21 TIME:   0.043 TIME LEFT:  2.00D  GRAD.:    10.073 HEAT:  42.95658
 CYCLE:    22 TIME:   0.051 TIME LEFT:  2.00D  GRAD.:    33.420 HEAT:  42.99320
 CYCLE:    23 TIME:   0.047 TIME LEFT:  2.00D  GRAD.:     8.523 HEAT:  42.79813
 CYCLE:    24 TIME:   0.047 TIME LEFT:  2.00D  GRAD.:     6.265 HEAT:  42.75853
 CYCLE:    25 TIME:   0.047 TIME LEFT:  2.00D  GRAD.:     7.971 HEAT:  42.68792
 CYCLE:    26 TIME:   0.047 TIME LEFT:  2.00D  GRAD.:    15.263 HEAT:  42.64045
 CYCLE:    27 TIME:   0.047 TIME LEFT:  2.00D  GRAD.:     6.031 HEAT:  42.58633
 CYCLE:    28 TIME:   0.043 TIME LEFT:  2.00D  GRAD.:     4.577 HEAT:  42.56220
 CYCLE:    29 TIME:   0.047 TIME LEFT:  2.00D  GRAD.:     5.310 HEAT:  42.53616
 CYCLE:    30 TIME:   0.047 TIME LEFT:  2.00D  GRAD.:    10.135 HEAT:  42.51149
 CYCLE:    31 TIME:   0.047 TIME LEFT:  2.00D  GRAD.:     4.839 HEAT:  42.48196
 CYCLE:    32 TIME:   0.047 TIME LEFT:  2.00D  GRAD.:     3.846 HEAT:  42.46395
 CYCLE:    33 TIME:   0.043 TIME LEFT:  2.00D  GRAD.:     4.669 HEAT:  42.44502
 CYCLE:    34 TIME:   0.047 TIME LEFT:  2.00D  GRAD.:     7.245 HEAT:  42.42225
 CYCLE:    35 TIME:   0.051 TIME LEFT:  2.00D  GRAD.:     5.196 HEAT:  42.39938
 CYCLE:    36 TIME:   0.043 TIME LEFT:  2.00D  GRAD.:     3.699 HEAT:  42.38244
 CYCLE:    37 TIME:   0.047 TIME LEFT:  2.00D  GRAD.:     4.509 HEAT:  42.36368
 CYCLE:    38 TIME:   0.047 TIME LEFT:  2.00D  GRAD.:     4.931 HEAT:  42.34918
 CYCLE:    39 TIME:   0.047 TIME LEFT:  2.00D  GRAD.:     4.550 HEAT:  42.32790
 CYCLE:    40 TIME:   0.047 TIME LEFT:  2.00D  GRAD.:    10.060 HEAT:  42.31829
 CYCLE:    41 TIME:   0.047 TIME LEFT:  2.00D  GRAD.:     4.452 HEAT:  42.29828
 CYCLE:    42 TIME:   0.047 TIME LEFT:  2.00D  GRAD.:     3.773 HEAT:  42.28710
 CYCLE:    43 TIME:   0.047 TIME LEFT:  2.00D  GRAD.:     4.342 HEAT:  42.27034
 CYCLE:    44 TIME:   0.047 TIME LEFT:  2.00D  GRAD.:     6.562 HEAT:  42.25072
 CYCLE:    45 TIME:   0.043 TIME LEFT:  2.00D  GRAD.:     4.586 HEAT:  42.23266
 CYCLE:    46 TIME:   0.047 TIME LEFT:  2.00D  GRAD.:     3.311 HEAT:  42.21828
 CYCLE:    47 TIME:   0.047 TIME LEFT:  2.00D  GRAD.:     4.723 HEAT:  42.19769
 CYCLE:    48 TIME:   0.047 TIME LEFT:  2.00D  GRAD.:     6.693 HEAT:  42.18667
 CYCLE:    49 TIME:   0.047 TIME LEFT:  2.00D  GRAD.:     4.423 HEAT:  42.17339
 CYCLE:    50 TIME:   0.047 TIME LEFT:  2.00D  GRAD.:     3.800 HEAT:  42.14985
 CYCLE:    51 TIME:   0.047 TIME LEFT:  2.00D  GRAD.:     4.881 HEAT:  42.13444
 CYCLE:    52 TIME:   0.043 TIME LEFT:  2.00D  GRAD.:     7.702 HEAT:  42.11257
 CYCLE:    53 TIME:   0.062 TIME LEFT:  2.00D  GRAD.:     5.445 HEAT:  42.08034
 CYCLE:    54 TIME:   0.051 TIME LEFT:  2.00D  GRAD.:     6.070 HEAT:  42.05352
 CYCLE:    55 TIME:   0.047 TIME LEFT:  2.00D  GRAD.:     5.207 HEAT:  42.02333
 CYCLE:    56 TIME:   0.051 TIME LEFT:  2.00D  GRAD.:     5.847 HEAT:  41.99242
 CYCLE:    57 TIME:   0.051 TIME LEFT:  2.00D  GRAD.:     6.366 HEAT:  41.95801
 CYCLE:    58 TIME:   0.047 TIME LEFT:  2.00D  GRAD.:     6.499 HEAT:  41.92501
 CYCLE:    59 TIME:   0.047 TIME LEFT:  2.00D  GRAD.:     5.728 HEAT:  41.89584
 CYCLE:    60 TIME:   0.047 TIME LEFT:  2.00D  GRAD.:     5.015 HEAT:  41.86164
 CYCLE:    61 TIME:   0.047 TIME LEFT:  2.00D  GRAD.:     6.966 HEAT:  41.83497
 CYCLE:    62 TIME:   0.051 TIME LEFT:  2.00D  GRAD.:     4.831 HEAT:  41.80583
 CYCLE:    63 TIME:   0.047 TIME LEFT:  2.00D  GRAD.:     3.880 HEAT:  41.78723
 CYCLE:    64 TIME:   0.051 TIME LEFT:  2.00D  GRAD.:     4.474 HEAT:  41.77277
 CYCLE:    65 TIME:   0.047 TIME LEFT:  2.00D  GRAD.:     4.210 HEAT:  41.76106
 CYCLE:    66 TIME:   0.047 TIME LEFT:  2.00D  GRAD.:     3.443 HEAT:  41.74991
 CYCLE:    67 TIME:   0.047 TIME LEFT:  2.00D  GRAD.:     3.348 HEAT:  41.73880
 CYCLE:    68 TIME:   0.043 TIME LEFT:  2.00D  GRAD.:     4.435 HEAT:  41.72645
 CYCLE:    69 TIME:   0.047 TIME LEFT:  2.00D  GRAD.:     3.523 HEAT:  41.71171
 CYCLE:    70 TIME:   0.051 TIME LEFT:  2.00D  GRAD.:     4.703 HEAT:  41.69538
 CYCLE:    71 TIME:   0.047 TIME LEFT:  2.00D  GRAD.:     4.482 HEAT:  41.68074
 CYCLE:    72 TIME:   0.051 TIME LEFT:  2.00D  GRAD.:     4.151 HEAT:  41.66469
 CYCLE:    73 TIME:   0.047 TIME LEFT:  2.00D  GRAD.:     7.427 HEAT:  41.64705
 CYCLE:    74 TIME:   0.047 TIME LEFT:  2.00D  GRAD.:     3.646 HEAT:  41.62690
 CYCLE:    75 TIME:   0.051 TIME LEFT:  2.00D  GRAD.:     3.828 HEAT:  41.61805
 CYCLE:    76 TIME:   0.047 TIME LEFT:  2.00D  GRAD.:     4.594 HEAT:  41.60115
 CYCLE:    77 TIME:   0.047 TIME LEFT:  2.00D  GRAD.:     5.853 HEAT:  41.58584
 CYCLE:    78 TIME:   0.047 TIME LEFT:  2.00D  GRAD.:     3.465 HEAT:  41.57265
 CYCLE:    79 TIME:   0.047 TIME LEFT:  2.00D  GRAD.:     3.697 HEAT:  41.56271
 CYCLE:    80 TIME:   0.047 TIME LEFT:  2.00D  GRAD.:     4.839 HEAT:  41.54951
 CYCLE:    81 TIME:   0.051 TIME LEFT:  2.00D  GRAD.:    10.927 HEAT:  41.54813
 CYCLE:    82 TIME:   0.043 TIME LEFT:  2.00D  GRAD.:     3.938 HEAT:  41.52832
 CYCLE:    83 TIME:   0.047 TIME LEFT:  2.00D  GRAD.:     2.928 HEAT:  41.52064
 CYCLE:    84 TIME:   0.047 TIME LEFT:  2.00D  GRAD.:     3.243 HEAT:  41.51161
 CYCLE:    85 TIME:   0.051 TIME LEFT:  2.00D  GRAD.:     4.167 HEAT:  41.49312
 CYCLE:    86 TIME:   0.051 TIME LEFT:  2.00D  GRAD.:     8.478 HEAT:  41.49106
 CYCLE:    87 TIME:   0.043 TIME LEFT:  2.00D  GRAD.:     6.963 HEAT:  41.48113
 CYCLE:    88 TIME:   0.051 TIME LEFT:  2.00D  GRAD.:     2.484 HEAT:  41.46586
 CYCLE:    89 TIME:   0.051 TIME LEFT:  2.00D  GRAD.:     4.606 HEAT:  41.46280
 CYCLE:    90 TIME:   0.047 TIME LEFT:  2.00D  GRAD.:     4.122 HEAT:  41.45287
 CYCLE:    91 TIME:   0.047 TIME LEFT:  2.00D  GRAD.:     3.777 HEAT:  41.44608
 CYCLE:    92 TIME:   0.047 TIME LEFT:  2.00D  GRAD.:     2.731 HEAT:  41.43704
 CYCLE:    93 TIME:   0.051 TIME LEFT:  2.00D  GRAD.:     5.252 HEAT:  41.42423
 CYCLE:    94 TIME:   0.047 TIME LEFT:  2.00D  GRAD.:     4.089 HEAT:  41.41129
 CYCLE:    95 TIME:   0.051 TIME LEFT:  2.00D  GRAD.:     3.836 HEAT:  41.39424
 CYCLE:    96 TIME:   0.047 TIME LEFT:  2.00D  GRAD.:     4.461 HEAT:  41.38199
 CYCLE:    97 TIME:   0.047 TIME LEFT:  2.00D  GRAD.:     4.158 HEAT:  41.37086
 CYCLE:    98 TIME:   0.047 TIME LEFT:  2.00D  GRAD.:     4.076 HEAT:  41.36058
 CYCLE:    99 TIME:   0.047 TIME LEFT:  2.00D  GRAD.:     5.559 HEAT:  41.34938
 CYCLE:   100 TIME:   0.043 TIME LEFT:  2.00D  GRAD.:     3.616 HEAT:  41.33658
 CYCLE:   101 TIME:   0.047 TIME LEFT:  2.00D  GRAD.:     3.498 HEAT:  41.32360
 CYCLE:   102 TIME:   0.051 TIME LEFT:  2.00D  GRAD.:     4.595 HEAT:  41.31044
 CYCLE:   103 TIME:   0.047 TIME LEFT:  2.00D  GRAD.:     6.190 HEAT:  41.29980
 CYCLE:   104 TIME:   0.047 TIME LEFT:  2.00D  GRAD.:     3.310 HEAT:  41.28564
 CYCLE:   105 TIME:   0.051 TIME LEFT:  2.00D  GRAD.:     3.313 HEAT:  41.27148
 CYCLE:   106 TIME:   0.051 TIME LEFT:  2.00D  GRAD.:     4.121 HEAT:  41.26034
 CYCLE:   107 TIME:   0.055 TIME LEFT:  2.00D  GRAD.:     4.511 HEAT:  41.24493
 CYCLE:   108 TIME:   0.047 TIME LEFT:  2.00D  GRAD.:     5.838 HEAT:  41.23014
 CYCLE:   109 TIME:   0.047 TIME LEFT:  2.00D  GRAD.:     3.993 HEAT:  41.21507
 CYCLE:   110 TIME:   0.047 TIME LEFT:  2.00D  GRAD.:     3.941 HEAT:  41.19356
 CYCLE:   111 TIME:   0.051 TIME LEFT:  2.00D  GRAD.:     5.234 HEAT:  41.17215
 CYCLE:   112 TIME:   0.051 TIME LEFT:  2.00D  GRAD.:     7.628 HEAT:  41.15146
 CYCLE:   113 TIME:   0.047 TIME LEFT:  2.00D  GRAD.:     4.548 HEAT:  41.12928
 CYCLE:   114 TIME:   0.047 TIME LEFT:  2.00D  GRAD.:     5.042 HEAT:  41.11026
 CYCLE:   115 TIME:   0.047 TIME LEFT:  2.00D  GRAD.:     7.187 HEAT:  41.09837
 CYCLE:   116 TIME:   0.051 TIME LEFT:  2.00D  GRAD.:     5.986 HEAT:  41.06973
 CYCLE:   117 TIME:   0.051 TIME LEFT:  2.00D  GRAD.:     4.772 HEAT:  41.04965
 CYCLE:   118 TIME:   0.047 TIME LEFT:  2.00D  GRAD.:     4.473 HEAT:  41.03287
 CYCLE:   119 TIME:   0.051 TIME LEFT:  2.00D  GRAD.:     5.946 HEAT:  41.01121
 CYCLE:   120 TIME:   0.047 TIME LEFT:  2.00D  GRAD.:     5.076 HEAT:  40.99515
 CYCLE:   121 TIME:   0.047 TIME LEFT:  2.00D  GRAD.:     3.491 HEAT:  40.98406
 CYCLE:   122 TIME:   0.051 TIME LEFT:  2.00D  GRAD.:     4.465 HEAT:  40.97051
 CYCLE:   123 TIME:   0.148 TIME LEFT:  2.00D  GRAD.:     3.387 HEAT:  40.95777
 CYCLE:   124 TIME:   0.152 TIME LEFT:  2.00D  GRAD.:     3.199 HEAT:  40.94678
 CYCLE:   125 TIME:   0.051 TIME LEFT:  2.00D  GRAD.:     5.244 HEAT:  40.93753
 CYCLE:   126 TIME:   0.047 TIME LEFT:  2.00D  GRAD.:     2.929 HEAT:  40.92723
 CYCLE:   127 TIME:   0.047 TIME LEFT:  2.00D  GRAD.:     2.744 HEAT:  40.91856
 CYCLE:   128 TIME:   0.047 TIME LEFT:  2.00D  GRAD.:     3.080 HEAT:  40.91050
 CYCLE:   129 TIME:   0.051 TIME LEFT:  2.00D  GRAD.:     7.289 HEAT:  40.90820
 CYCLE:   130 TIME:   0.051 TIME LEFT:  2.00D  GRAD.:     2.456 HEAT:  40.89634
 CYCLE:   131 TIME:   0.043 TIME LEFT:  2.00D  GRAD.:     1.890 HEAT:  40.89191
 CYCLE:   132 TIME:   0.055 TIME LEFT:  2.00D  GRAD.:     3.467 HEAT:  40.88380
 CYCLE:   133 TIME:   0.047 TIME LEFT:  2.00D  GRAD.:     4.420 HEAT:  40.87954
 CYCLE:   134 TIME:   0.047 TIME LEFT:  2.00D  GRAD.:     2.534 HEAT:  40.87301
 CYCLE:   135 TIME:   0.051 TIME LEFT:  2.00D  GRAD.:     2.340 HEAT:  40.86696
 CYCLE:   136 TIME:   0.047 TIME LEFT:  2.00D  GRAD.:     2.209 HEAT:  40.86295
 CYCLE:   137 TIME:   0.047 TIME LEFT:  2.00D  GRAD.:     3.281 HEAT:  40.85537
 CYCLE:   138 TIME:   0.051 TIME LEFT:  2.00D  GRAD.:     5.167 HEAT:  40.85131
 CYCLE:   139 TIME:   0.047 TIME LEFT:  2.00D  GRAD.:     2.300 HEAT:  40.84460
 CYCLE:   140 TIME:   0.047 TIME LEFT:  2.00D  GRAD.:     1.759 HEAT:  40.84053
 CYCLE:   141 TIME:   0.051 TIME LEFT:  2.00D  GRAD.:     2.133 HEAT:  40.83586
 CYCLE:   142 TIME:   0.051 TIME LEFT:  2.00D  GRAD.:     4.705 HEAT:  40.83299
 CYCLE:   143 TIME:   0.047 TIME LEFT:  2.00D  GRAD.:     1.640 HEAT:  40.82803
 CYCLE:   144 TIME:   0.047 TIME LEFT:  2.00D  GRAD.:     1.288 HEAT:  40.82669
 CYCLE:   145 TIME:   0.047 TIME LEFT:  2.00D  GRAD.:     1.341 HEAT:  40.82452
 CYCLE:   146 TIME:   0.047 TIME LEFT:  2.00D  GRAD.:     3.389 HEAT:  40.82321
 CYCLE:   147 TIME:   0.047 TIME LEFT:  2.00D  GRAD.:     1.454 HEAT:  40.82064
 CYCLE:   148 TIME:   0.051 TIME LEFT:  2.00D  GRAD.:     1.243 HEAT:  40.81899
 CYCLE:   149 TIME:   0.047 TIME LEFT:  2.00D  GRAD.:     1.508 HEAT:  40.81742
 CYCLE:   150 TIME:   0.051 TIME LEFT:  2.00D  GRAD.:     2.149 HEAT:  40.81490
 CYCLE:   151 TIME:   0.047 TIME LEFT:  2.00D  GRAD.:     2.205 HEAT:  40.81279
 CYCLE:   152 TIME:   0.047 TIME LEFT:  2.00D  GRAD.:     1.375 HEAT:  40.81090
 CYCLE:   153 TIME:   0.043 TIME LEFT:  2.00D  GRAD.:     1.595 HEAT:  40.80872
 CYCLE:   154 TIME:   0.051 TIME LEFT:  2.00D  GRAD.:     1.896 HEAT:  40.80653
 CYCLE:   155 TIME:   0.047 TIME LEFT:  2.00D  GRAD.:     1.892 HEAT:  40.80386
 CYCLE:   156 TIME:   0.051 TIME LEFT:  2.00D  GRAD.:     1.587 HEAT:  40.80052
 CYCLE:   157 TIME:   0.051 TIME LEFT:  2.00D  GRAD.:     2.891 HEAT:  40.79724
 CYCLE:   158 TIME:   0.047 TIME LEFT:  2.00D  GRAD.:     2.100 HEAT:  40.79342
 CYCLE:   159 TIME:   0.047 TIME LEFT:  2.00D  GRAD.:     1.571 HEAT:  40.79033
 CYCLE:   160 TIME:   0.047 TIME LEFT:  2.00D  GRAD.:     1.771 HEAT:  40.78736
 CYCLE:   161 TIME:   0.051 TIME LEFT:  2.00D  GRAD.:     2.760 HEAT:  40.78258
 CYCLE:   162 TIME:   0.051 TIME LEFT:  2.00D  GRAD.:     3.193 HEAT:  40.77841
 CYCLE:   163 TIME:   0.047 TIME LEFT:  2.00D  GRAD.:     2.138 HEAT:  40.77360
 CYCLE:   164 TIME:   0.047 TIME LEFT:  2.00D  GRAD.:     1.878 HEAT:  40.76832
 CYCLE:   165 TIME:   0.051 TIME LEFT:  2.00D  GRAD.:     2.581 HEAT:  40.76386
 CYCLE:   166 TIME:   0.051 TIME LEFT:  2.00D  GRAD.:     2.201 HEAT:  40.75871
 CYCLE:   167 TIME:   0.047 TIME LEFT:  2.00D  GRAD.:     3.013 HEAT:  40.75552
 CYCLE:   168 TIME:   0.047 TIME LEFT:  2.00D  GRAD.:     1.959 HEAT:  40.75228
 CYCLE:   169 TIME:   0.047 TIME LEFT:  2.00D  GRAD.:     1.684 HEAT:  40.75027
 CYCLE:   170 TIME:   0.047 TIME LEFT:  2.00D  GRAD.:     1.810 HEAT:  40.74722
 CYCLE:   171 TIME:   0.051 TIME LEFT:  2.00D  GRAD.:     3.203 HEAT:  40.74424
 CYCLE:   172 TIME:   0.047 TIME LEFT:  2.00D  GRAD.:     1.734 HEAT:  40.74123
 CYCLE:   173 TIME:   0.051 TIME LEFT:  2.00D  GRAD.:     1.813 HEAT:  40.73860
 CYCLE:   174 TIME:   0.043 TIME LEFT:  2.00D  GRAD.:     2.168 HEAT:  40.73516
 CYCLE:   175 TIME:   0.051 TIME LEFT:  2.00D  GRAD.:     4.238 HEAT:  40.72959
 CYCLE:   176 TIME:   0.047 TIME LEFT:  2.00D  GRAD.:     2.564 HEAT:  40.72432
 CYCLE:   177 TIME:   0.047 TIME LEFT:  2.00D  GRAD.:     2.123 HEAT:  40.72048
 CYCLE:   178 TIME:   0.051 TIME LEFT:  2.00D  GRAD.:     2.792 HEAT:  40.71418
 CYCLE:   179 TIME:   0.051 TIME LEFT:  2.00D  GRAD.:     4.020 HEAT:  40.71159
 CYCLE:   180 TIME:   0.047 TIME LEFT:  2.00D  GRAD.:     2.174 HEAT:  40.70815
 CYCLE:   181 TIME:   0.062 TIME LEFT:  2.00D  GRAD.:     2.028 HEAT:  40.70442
 CYCLE:   182 TIME:   0.043 TIME LEFT:  2.00D  GRAD.:     2.218 HEAT:  40.70177
 CYCLE:   183 TIME:   0.051 TIME LEFT:  2.00D  GRAD.:     2.800 HEAT:  40.69433
 CYCLE:   184 TIME:   0.051 TIME LEFT:  2.00D  GRAD.:     4.529 HEAT:  40.69356
 CYCLE:   185 TIME:   0.043 TIME LEFT:  2.00D  GRAD.:     2.445 HEAT:  40.68907
 CYCLE:   186 TIME:   0.047 TIME LEFT:  2.00D  GRAD.:     1.261 HEAT:  40.68760
 CYCLE:   187 TIME:   0.051 TIME LEFT:  2.00D  GRAD.:     1.656 HEAT:  40.68624
 CYCLE:   188 TIME:   0.047 TIME LEFT:  2.00D  GRAD.:     1.554 HEAT:  40.68499
 CYCLE:   189 TIME:   0.051 TIME LEFT:  2.00D  GRAD.:     2.869 HEAT:  40.68137
 CYCLE:   190 TIME:   0.051 TIME LEFT:  2.00D  GRAD.:     2.216 HEAT:  40.67903
 CYCLE:   191 TIME:   0.043 TIME LEFT:  2.00D  GRAD.:     1.263 HEAT:  40.67751
 CYCLE:   192 TIME:   0.051 TIME LEFT:  2.00D  GRAD.:     1.076 HEAT:  40.67601
 CYCLE:   193 TIME:   0.047 TIME LEFT:  2.00D  GRAD.:     1.534 HEAT:  40.67432
 CYCLE:   194 TIME:   0.051 TIME LEFT:  2.00D  GRAD.:     1.788 HEAT:  40.67225
 CYCLE:   195 TIME:   0.051 TIME LEFT:  2.00D  GRAD.:     1.431 HEAT:  40.67084
 CYCLE:   196 TIME:   0.047 TIME LEFT:  2.00D  GRAD.:     1.252 HEAT:  40.66919
 CYCLE:   197 TIME:   0.047 TIME LEFT:  2.00D  GRAD.:     1.800 HEAT:  40.66711
 CYCLE:   198 TIME:   0.047 TIME LEFT:  2.00D  GRAD.:     1.962 HEAT:  40.66522
 CYCLE:   199 TIME:   0.051 TIME LEFT:  2.00D  GRAD.:     1.629 HEAT:  40.66359
 CYCLE:   200 TIME:   0.047 TIME LEFT:  2.00D  GRAD.:     1.552 HEAT:  40.66195
 CYCLE:   201 TIME:   0.051 TIME LEFT:  2.00D  GRAD.:     2.031 HEAT:  40.66055
 CYCLE:   202 TIME:   0.047 TIME LEFT:  2.00D  GRAD.:     1.299 HEAT:  40.65928
 CYCLE:   203 TIME:   0.043 TIME LEFT:  2.00D  GRAD.:     1.060 HEAT:  40.65763
 CYCLE:   204 TIME:   0.066 TIME LEFT:  2.00D  GRAD.:     1.150 HEAT:  40.65663
 CYCLE:   205 TIME:   0.059 TIME LEFT:  2.00D  GRAD.:     1.117 HEAT:  40.65535
 CYCLE:   206 TIME:   0.047 TIME LEFT:  2.00D  GRAD.:     3.124 HEAT:  40.65391
 CYCLE:   207 TIME:   0.047 TIME LEFT:  2.00D  GRAD.:     1.515 HEAT:  40.65165
 CYCLE:   208 TIME:   0.051 TIME LEFT:  2.00D  GRAD.:     1.281 HEAT:  40.65056
 CYCLE:   209 TIME:   0.047 TIME LEFT:  2.00D  GRAD.:     1.435 HEAT:  40.64899
 CYCLE:   210 TIME:   0.055 TIME LEFT:  2.00D  GRAD.:     1.971 HEAT:  40.64769
 CYCLE:   211 TIME:   0.051 TIME LEFT:  2.00D  GRAD.:     3.426 HEAT:  40.64665
 CYCLE:   212 TIME:   0.047 TIME LEFT:  2.00D  GRAD.:     1.311 HEAT:  40.64457
 CYCLE:   213 TIME:   0.055 TIME LEFT:  2.00D  GRAD.:     1.295 HEAT:  40.64476
 CYCLE:   214 TIME:   0.051 TIME LEFT:  2.00D  GRAD.:     2.385 HEAT:  40.64310
 CYCLE:   215 TIME:   0.047 TIME LEFT:  2.00D  GRAD.:     1.416 HEAT:  40.64101
 CYCLE:   216 TIME:   0.051 TIME LEFT:  2.00D  GRAD.:     1.230 HEAT:  40.63937
 CYCLE:   217 TIME:   0.047 TIME LEFT:  2.00D  GRAD.:     1.983 HEAT:  40.63801
 CYCLE:   218 TIME:   0.051 TIME LEFT:  2.00D  GRAD.:     1.611 HEAT:  40.63577
 CYCLE:   219 TIME:   0.055 TIME LEFT:  2.00D  GRAD.:     1.732 HEAT:  40.63269
 CYCLE:   220 TIME:   0.051 TIME LEFT:  2.00D  GRAD.:     6.812 HEAT:  40.63653
 CYCLE:   221 TIME:   0.055 TIME LEFT:  2.00D  GRAD.:     1.687 HEAT:  40.62942
 CYCLE:   222 TIME:   0.051 TIME LEFT:  2.00D  GRAD.:     0.953 HEAT:  40.62875

 -------------------------------------------------------------------------------
 PM7 XYZ

 Lipophilicity_1126 - geometry optimisation


     HERBERTS TEST WAS SATISFIED IN BFGS                      
     SCF FIELD WAS ACHIEVED                                   


                              PM7 CALCULATION
                                                       MOPAC v23.0.3 Linux
                                                       Fri Jul 25 16:17:18 2025




          FINAL HEAT OF FORMATION =         40.62874 KCAL/MOL =     169.99066 KJ/MOL


          COSMO AREA              =        447.36 SQUARE ANGSTROMS
          COSMO VOLUME            =        518.31 CUBIC ANGSTROMS

          GRADIENT NORM           =          0.95312          =       0.12305 PER ATOM
          IONIZATION POTENTIAL    =          8.801822 EV
          HOMO LUMO ENERGIES (EV) =         -8.802 -0.767
          NO. OF FILLED LEVELS    =         81
          MOLECULAR WEIGHT        =        419.5284         POINT GROUP:  C1  

          MOLECULAR DIMENSIONS (Angstroms)

            Atom       Atom       Distance
            H    49    H    32    19.34498
            H    56    H    46     7.14956
            H    53    O     9     6.12786


          SCF CALCULATIONS        =        223

          WALL-CLOCK TIME         =     11.043 SECONDS
          COMPUTATION TIME        =          3 MINUTES AND 40.036 SECONDS




   ATOM   CHEMICAL          X               Y               Z
  NUMBER   SYMBOL      (ANGSTROMS)     (ANGSTROMS)     (ANGSTROMS)

     1       C          8.70284002  *  -0.63362532  *   1.63902955  *
     2       N          8.68829541  *  -0.50896152  *   0.16931936  *
     3       C          7.36640426  *  -0.31662208  *  -0.43876622  *
     4       C          6.26150250  *  -1.33478740  *  -0.03947481  *
     5       C          4.96943641  *  -0.52268177  *   0.15643123  *
     6       N          5.35107257  *   0.89975012  *   0.12382238  *
     7       C          6.79681493  *   1.08119385  *  -0.07316299  *
     8       C          4.47812917  *   1.89752671  *  -0.27277888  *
     9       O          4.90718252  *   2.99296937  *  -0.57667359  *
    10       C          3.02680285  *   1.58148789  *  -0.21543418  *
    11       C          2.37302200  *   1.52044203  *   1.01463187  *
    12       C          1.00808675  *   1.27439219  *   1.06138717  *
    13       C          0.28987593  *   1.08683407  *  -0.13854537  *
    14       N         -1.09618518  *   0.87205546  *   0.01000065  *
    15       C         -2.00445392  *   0.50842622  *  -0.96390515  *
    16       N         -1.62128209  *   0.15118947  *  -2.22351745  *
    17       C         -2.59757352  *  -0.19877447  *  -3.08204620  *
    18       C         -3.94530012  *  -0.20564355  *  -2.72257460  *
    19       C         -4.26747865  *   0.16737499  *  -1.40101500  *
    20       N         -3.31023787  *   0.52026256  *  -0.52342801  *
    21       C         -5.65911872  *   0.23531226  *  -0.99354711  *
    22       C         -6.67853431  *   0.90320863  *  -1.69828375  *
    23       N         -7.86184017  *   0.79191015  *  -1.00932273  *
    24       C         -7.60923523  *   0.06279660  *   0.10269026  *
    25       C         -8.61966472  *  -0.29638030  *   1.11687850  *
    26       N         -6.26261808  *  -0.29957300  *   0.14821130  *
    27       C         -5.64731943  *  -1.11011318  *   1.20989464  *
    28       C         -4.74939672  *  -2.20649159  *   0.62660187  *
    29       C         -4.87860773  *  -0.20662035  *   2.18001494  *
    30       C          0.95238464  *   1.15032517  *  -1.37053136  *
    31       C          2.31967850  *   1.40366735  *  -1.40234971  *
    32       H          9.72887176  *  -0.40822461  *   1.98272735  *
    33       H          8.42054821  *  -1.62917257  *   2.01172301  *
    34       H          8.03302280  *   0.10759553  *   2.10587706  *
    35       H          9.17333051  *  -1.29730491  *  -0.25585799  *
    36       H          7.52110596  *  -0.36226883  *  -1.54926010  *
    37       H          6.53173467  *  -1.86655245  *   0.88704073  *
    38       H          6.13790943  *  -2.10700637  *  -0.81279524  *
    39       H          4.49409546  *  -0.74357146  *   1.13670429  *
    40       H          4.21989709  *  -0.75497740  *  -0.63042927  *
    41       H          7.00912086  *   1.83014538  *  -0.86733411  *
    42       H          7.24491538  *   1.48556801  *   0.86055058  *
    43       H          2.93390882  *   1.67288695  *   1.93818444  *
    44       H          0.50118650  *   1.23180429  *   2.02189720  *
    45       H         -1.50158410  *   1.07694118  *   0.92892502  *
    46       H         -2.25805390  *  -0.47948265  *  -4.08874055  *
    47       H         -4.72152696  *  -0.48927454  *  -3.42321533  *
    48       H         -6.61439527  *   1.44645260  *  -2.62270558  *
    49       H         -9.57560314  *   0.22155325  *   0.90162947  *
    50       H         -8.31962821  *   0.00011362  *   2.13286961  *
    51       H         -8.84086954  *  -1.37480428  *   1.11846285  *
    52       H         -6.49192327  *  -1.60912967  *   1.76694437  *
    53       H         -4.53307382  *  -2.97247459  *   1.38074631  *
    54       H         -5.21883729  *  -2.70510223  *  -0.22994226  *
    55       H         -3.78348406  *  -1.81250843  *   0.28734499  *
    56       H         -4.36322831  *  -0.79618594  *   2.94441554  *
    57       H         -5.54187583  *   0.50636871  *   2.68147034  *
    58       H         -4.11686313  *   0.39132499  *   1.65322911  *
    59       H          0.41384748  *   1.01258410  *  -2.31158416  *
    60       H          2.83483966  *   1.47295090  *  -2.36240982  *

                             CARTESIAN COORDINATES

   1    C        8.702840017    -0.633625318     1.639029551
   2    N        8.688295409    -0.508961516     0.169319359
   3    C        7.366404260    -0.316622075    -0.438766218
   4    C        6.261502501    -1.334787397    -0.039474808
   5    C        4.969436413    -0.522681766     0.156431230
   6    N        5.351072569     0.899750120     0.123822379
   7    C        6.796814930     1.081193852    -0.073162988
   8    C        4.478129168     1.897526706    -0.272778882
   9    O        4.907182524     2.992969365    -0.576673585
  10    C        3.026802852     1.581487894    -0.215434183
  11    C        2.373022003     1.520442026     1.014631865
  12    C        1.008086745     1.274392190     1.061387169
  13    C        0.289875934     1.086834065    -0.138545372
  14    N       -1.096185181     0.872055461     0.010000647
  15    C       -2.004453922     0.508426216    -0.963905154
  16    N       -1.621282089     0.151189470    -2.223517448
  17    C       -2.597573522    -0.198774470    -3.082046200
  18    C       -3.945300119    -0.205643550    -2.722574603
  19    C       -4.267478645     0.167374995    -1.401015000
  20    N       -3.310237870     0.520262565    -0.523428014
  21    C       -5.659118715     0.235312256    -0.993547106
  22    C       -6.678534306     0.903208628    -1.698283750
  23    N       -7.861840175     0.791910154    -1.009322729
  24    C       -7.609235232     0.062796599     0.102690265
  25    C       -8.619664717    -0.296380302     1.116878500
  26    N       -6.262618080    -0.299573002     0.148211296
  27    C       -5.647319426    -1.110113185     1.209894644
  28    C       -4.749396719    -2.206491593     0.626601867
  29    C       -4.878607730    -0.206620354     2.180014940
  30    C        0.952384642     1.150325167    -1.370531362
  31    C        2.319678495     1.403667346    -1.402349710
  32    H        9.728871760    -0.408224614     1.982727346
  33    H        8.420548214    -1.629172566     2.011723010
  34    H        8.033022802     0.107595530     2.105877061
  35    H        9.173330511    -1.297304905    -0.255857992
  36    H        7.521105959    -0.362268831    -1.549260098
  37    H        6.531734670    -1.866552448     0.887040730
  38    H        6.137909431    -2.107006366    -0.812795236
  39    H        4.494095464    -0.743571463     1.136704287
  40    H        4.219897091    -0.754977399    -0.630429267
  41    H        7.009120863     1.830145378    -0.867334109
  42    H        7.244915383     1.485568012     0.860550582
  43    H        2.933908824     1.672886947     1.938184442
  44    H        0.501186502     1.231804293     2.021897202
  45    H       -1.501584099     1.076941184     0.928925019
  46    H       -2.258053903    -0.479482647    -4.088740551
  47    H       -4.721526960    -0.489274543    -3.423215328
  48    H       -6.614395267     1.446452601    -2.622705583
  49    H       -9.575603140     0.221553249     0.901629469
  50    H       -8.319628211     0.000113616     2.132869610
  51    H       -8.840869537    -1.374804279     1.118462853
  52    H       -6.491923273    -1.609129666     1.766944370
  53    H       -4.533073817    -2.972474585     1.380746308
  54    H       -5.218837286    -2.705102232    -0.229942256
  55    H       -3.783484061    -1.812508432     0.287344992
  56    H       -4.363228311    -0.796185939     2.944415543
  57    H       -5.541875826     0.506368714     2.681470342
  58    H       -4.116863128     0.391324985     1.653229107
  59    H        0.413847480     1.012584102    -2.311584157
  60    H        2.834839658     1.472950901    -2.362409818


           Empirical Formula: C23 H29 N7 O  =    60 atoms



      MOLECULAR POINT GROUP   :   C1  


                  EIGENVALUES  
 -38.47979 -38.45019 -36.60350 -36.58243 -35.39901 -34.38456 -33.70954 -30.79497
 -30.05085 -28.37058 -27.97230 -27.58384 -27.08159 -26.44467 -26.27961 -25.28642
 -25.09126 -24.36260 -24.18391 -23.43218 -22.91565 -22.11226 -21.77879 -21.49181
 -21.28144 -20.35991 -19.84608 -19.56290 -19.36261 -18.70745 -18.26374 -18.00348
 -17.67919 -17.23092 -16.81488 -16.72309 -16.32781 -16.14394 -15.97762 -15.83957
 -15.58456 -15.41244 -15.07800 -14.99085 -14.96497 -14.95230 -14.81500 -14.61915
 -14.60904 -14.49938 -14.26074 -14.20859 -14.07080 -14.01563 -13.74733 -13.66020
 -13.53394 -13.47694 -13.33737 -13.19559 -13.09076 -12.88953 -12.68881 -12.67198
 -12.43230 -12.39432 -12.27661 -12.17292 -11.94164 -11.76943 -11.70377 -10.78750
 -10.52230 -10.40004 -10.25649 -10.18095 -10.16215  -9.33157  -9.16141  -9.10419
  -8.80182  -0.76735  -0.60947  -0.03442   0.13942   0.64538   1.20905   1.31676
   1.51281   1.52329   1.91414   2.07067   2.34625   2.57032   2.76854   2.87431
   3.16259   3.18710   3.35789   3.47201   3.53701   3.60959   3.63722   3.73847
   3.83153   3.94763   4.10237   4.21845   4.29091   4.40404   4.46604   4.60136
   4.62920   4.70501   4.78186   4.81302   4.88999   4.91857   4.93986   5.05239
   5.13539   5.14674   5.21613   5.25194   5.28014   5.30348   5.41113   5.43064
   5.47248   5.49472   5.54723   5.57795   5.58461   5.61033   5.62179   5.70486
   5.72992   5.85154   5.85612   5.88201   5.90593   5.91654   5.96036   6.03802
   6.05142   6.20385   6.30866   6.36287   6.36495   6.42325   6.58809   6.68664
   6.82541


              NET ATOMIC CHARGES AND DIPOLE CONTRIBUTIONS

  ATOM NO.   TYPE          CHARGE      No. of ELECS.   s-Pop       p-Pop       
    1          C          -0.270859        4.2709     1.05919     3.21167
    2          N          -0.538689        5.5387     1.65197     3.88672
    3          C           0.045938        3.9541     1.07753     2.87653
    4          C          -0.354458        4.3545     1.07601     3.27845
    5          C          -0.058976        4.0590     1.06851     2.99046
    6          N          -0.503794        5.5038     1.59813     3.90567
    7          C          -0.083327        4.0833     1.07539     3.00794
    8          C           0.568336        3.4317     1.07636     2.35530
    9          O          -0.513019        6.5130     1.88184     4.63117
   10          C          -0.167752        4.1678     1.06910     3.09865
   11          C          -0.065159        4.0652     1.08267     2.98249
   12          C          -0.257340        4.2573     1.07582     3.18152
   13          C           0.245771        3.7542     1.05698     2.69725
   14          N          -0.469607        5.4696     1.52360     3.94601
   15          C           0.520686        3.4793     1.04823     2.43108
   16          N          -0.506631        5.5066     1.75592     3.75071
   17          C           0.172468        3.8275     1.09998     2.72755
   18          C          -0.404029        4.4040     1.08080     3.32323
   19          C           0.331762        3.6682     1.06250     2.60574
   20          N          -0.543174        5.5432     1.75967     3.78350
   21          C          -0.088232        4.0882     1.04513     3.04310
   22          C          -0.026827        4.0268     1.09256     2.93426
   23          N          -0.397095        5.3971     1.76584     3.63125
   24          C           0.230798        3.7692     1.07013     2.69907
   25          C          -0.438077        4.4381     1.04630     3.39177
   26          N          -0.256874        5.2569     1.54729     3.70958
   27          C           0.128820        3.8712     1.06473     2.80645
   28          C          -0.481143        4.4811     1.05997     3.42117
   29          C          -0.481139        4.4811     1.06089     3.42025
   30          C          -0.219685        4.2197     1.08348     3.13621
   31          C          -0.065105        4.0651     1.08515     2.97996
   32          H           0.150917        0.8491     0.84908
   33          H           0.113732        0.8863     0.88627
   34          H           0.153341        0.8467     0.84666
   35          H           0.258287        0.7417     0.74171
   36          H           0.140929        0.8591     0.85907
   37          H           0.151292        0.8487     0.84871
   38          H           0.145689        0.8543     0.85431
   39          H           0.141422        0.8586     0.85858
   40          H           0.139941        0.8601     0.86006
   41          H           0.163942        0.8361     0.83606
   42          H           0.158010        0.8420     0.84199
   43          H           0.159317        0.8407     0.84068
   44          H           0.160707        0.8393     0.83929
   45          H           0.333988        0.6660     0.66601
   46          H           0.178578        0.8214     0.82142
   47          H           0.192501        0.8075     0.80750
   48          H           0.185261        0.8147     0.81474
   49          H           0.192220        0.8078     0.80778
   50          H           0.164330        0.8357     0.83567
   51          H           0.165606        0.8344     0.83439
   52          H           0.140933        0.8591     0.85907
   53          H           0.160086        0.8399     0.83991
   54          H           0.160888        0.8391     0.83911
   55          H           0.168471        0.8315     0.83153
   56          H           0.156013        0.8440     0.84399
   57          H           0.154105        0.8459     0.84590
   58          H           0.190025        0.8100     0.80998
   59          H           0.203777        0.7962     0.79622
   60          H           0.162107        0.8379     0.83789
 DIPOLE           X         Y         Z       TOTAL
 POINT-CHG.    -0.321    -7.103     3.236     7.812
 HYBRID        -0.051    -1.139     0.555     1.268
 SUM           -0.371    -8.242     3.791     9.079


          ATOMIC ORBITAL ELECTRON POPULATIONS

     Atom    s        px        py        pz   
    1  C   1.05919   1.17265   1.14501   0.89401
    2  N   1.65197   1.23590   1.54070   1.11011
    3  C   1.07753   0.85988   0.96315   1.05350
    4  C   1.07601   1.02897   1.07994   1.16954
    5  C   1.06851   1.02659   0.81545   1.14842
    6  N   1.59813   1.12364   1.12417   1.65786
    7  C   1.07539   0.80823   1.03456   1.16516
    8  C   1.07636   0.84704   0.79173   0.71654
    9  O   1.88184   1.79564   1.32496   1.51058
   10  C   1.06910   1.00090   1.09344   1.00431
   11  C   1.08267   0.99459   0.94313   1.04477
   12  C   1.07582   1.01851   1.11328   1.04974
   13  C   1.05698   0.77865   0.93335   0.98524
   14  N   1.52360   1.11792   1.63550   1.19259
   15  C   1.04823   0.79886   0.82308   0.80914
   16  N   1.75592   1.38503   1.27221   1.09347
   17  C   1.09998   0.90034   0.82857   0.99864
   18  C   1.08080   1.06681   1.19103   1.06539
   19  C   1.06250   0.90301   0.81116   0.89157
   20  N   1.75967   1.07464   1.30771   1.40115
   21  C   1.04513   0.96600   1.13958   0.93752
   22  C   1.09256   0.86952   1.02896   1.03578
   23  N   1.76584   1.29703   1.22175   1.11247
   24  C   1.07013   0.79780   0.96015   0.94112
   25  C   1.04630   1.11776   1.17758   1.09643
   26  N   1.54729   1.13624   1.37360   1.19974
   27  C   1.06473   1.01231   0.91995   0.87419
   28  C   1.05997   1.14824   1.10382   1.16911
   29  C   1.06089   1.16348   1.13513   1.12163
   30  C   1.08348   1.01381   1.05808   1.06432
   31  C   1.08515   0.99455   0.93775   1.04766
   32  H   0.84908
   33  H   0.88627
   34  H   0.84666
   35  H   0.74171
   36  H   0.85907
   37  H   0.84871
   38  H   0.85431
   39  H   0.85858
   40  H   0.86006
   41  H   0.83606
   42  H   0.84199
   43  H   0.84068
   44  H   0.83929
   45  H   0.66601
   46  H   0.82142
   47  H   0.80750
   48  H   0.81474
   49  H   0.80778
   50  H   0.83567
   51  H   0.83439
   52  H   0.85907
   53  H   0.83991
   54  H   0.83911
   55  H   0.83153
   56  H   0.84399
   57  H   0.84590
   58  H   0.80998
   59  H   0.79622
   60  H   0.83789

 **********************
 *                    *
 * JOB ENDED NORMALLY *
 *                    *
 **********************



 TOTAL JOB TIME:            11.05 SECONDS

 == MOPAC DONE ==
