 *******************************************************************************
 **                                                                           **
 **                              MOPAC v23.0.3                                **
 **                                                                           **
 *******************************************************************************
 **          Digital Object Identifier (DOI): 10.5281/zenodo.6511958          **
 **    Visit the DOI location for information on how to cite this program.    **
 *******************************************************************************

                              PM7 CALCULATION RESULTS

 *******************************************************************************
 *  CALCULATION DONE:                                Fri Jul 25 17:10:09 2025  *
 *  PM7        - The PM7 Hamiltonian to be used
 *  XYZ        - CARTESIAN COORDINATE SYSTEM TO BE USED
 *  T=         - A TIME OF 172800.0 SECONDS REQUESTED
 *  DUMP=N     - RESTART FILE WRITTEN EVERY 7200.0 SECONDS REQUESTED
 *******************************************************************************
PM7 XYZ

 Lipophilicity_1441 - geometry optimisation
   ATOM   CHEMICAL          X               Y               Z
  NUMBER   SYMBOL      (ANGSTROMS)     (ANGSTROMS)     (ANGSTROMS)

     1       C         -4.55073000  *   2.32635800  *   0.43597000  *
     2       C         -3.88441100  *   0.97669200  *   0.35390400  *
     3       C         -4.69438600  *  -0.17489500  *   0.34248000  *
     4       C         -4.07793600  *  -1.41534700  *   0.26701200  *
     5       N         -4.70780200  *  -2.60812600  *   0.24865300  *
     6       N         -3.74581100  *  -3.51734900  *   0.17356300  *
     7       C         -2.56546200  *  -2.87224500  *   0.14829000  *
     8       O         -1.45428400  *  -3.46044300  *   0.08205500  *
     9       N         -2.73872100  *  -1.53393900  *   0.20531600  *
    10       C         -1.89076500  *  -0.46059800  *   0.21163600  *
    11       C         -0.49133000  *  -0.60264200  *   0.14352900  *
    12       C          0.34684200  *   0.52475300  *   0.15288500  *
    13       C         -0.22634100  *   1.80259300  *   0.22820400  *
    14       C         -1.61047300  *   1.96154000  *   0.29484800  *
    15       C         -2.46424500  *   0.84172400  *   0.28772400  *
    16       C          1.82244500  *   0.36778500  *   0.08334500  *
    17       C          2.59420900  *   1.22058900  *  -0.72628500  *
    18       C          3.98252600  *   1.07203100  *  -0.79242900  *
    19       C          4.62514800  *   0.07734000  *  -0.04132500  *
    20       C          6.11452300  *  -0.10557800  *  -0.14019500  *
    21       O          6.41736500  *  -1.06965300  *  -1.11074200  *
    22       C          3.85899100  *  -0.78497700  *   0.75605700  *
    23       C          2.47051300  *  -0.63829000  *   0.82260500  *
    24       H         -5.65729800  *   2.23787200  *   0.47898200  *
    25       H         -4.29147400  *   2.92901400  *  -0.45974100  *
    26       H         -4.21521500  *   2.85645300  *   1.35200900  *
    27       H         -5.77443800  *  -0.10857000  *   0.39155300  *
    28       H         -3.90163300  *  -4.54925100  *   0.14202500  *
    29       H         -0.03895300  *  -1.57754400  *   0.06269200  *
    30       H          0.40070900  *   2.68523700  *   0.25290700  *
    31       H         -2.00048500  *   2.96853700  *   0.35524400  *
    32       H          2.12167900  *   1.98968200  *  -1.32440500  *
    33       H          4.55601400  *   1.73111000  *  -1.43256100  *
    34       H          6.51747400  *  -0.44474200  *   0.83790700  *
    35       H          6.61732300  *   0.85922500  *  -0.38013200  *
    36       H          6.29399000  *  -0.63187800  *  -1.99347500  *
    37       H          4.33739100  *  -1.56944000  *   1.32951400  *
    38       H          1.90505200  *  -1.30303000  *   1.46362100  *



          CARTESIAN COORDINATES 

    NO.       ATOM           X           Y           Z

     1         C         -4.5507      2.3264      0.4360
     2         C         -3.8844      0.9767      0.3539
     3         C         -4.6944     -0.1749      0.3425
     4         C         -4.0779     -1.4153      0.2670
     5         N         -4.7078     -2.6081      0.2487
     6         N         -3.7458     -3.5173      0.1736
     7         C         -2.5655     -2.8722      0.1483
     8         O         -1.4543     -3.4604      0.0821
     9         N         -2.7387     -1.5339      0.2053
    10         C         -1.8908     -0.4606      0.2116
    11         C         -0.4913     -0.6026      0.1435
    12         C          0.3468      0.5248      0.1529
    13         C         -0.2263      1.8026      0.2282
    14         C         -1.6105      1.9615      0.2948
    15         C         -2.4642      0.8417      0.2877
    16         C          1.8224      0.3678      0.0833
    17         C          2.5942      1.2206     -0.7263
    18         C          3.9825      1.0720     -0.7924
    19         C          4.6251      0.0773     -0.0413
    20         C          6.1145     -0.1056     -0.1402
    21         O          6.4174     -1.0697     -1.1107
    22         C          3.8590     -0.7850      0.7561
    23         C          2.4705     -0.6383      0.8226
    24         H         -5.6573      2.2379      0.4790
    25         H         -4.2915      2.9290     -0.4597
    26         H         -4.2152      2.8565      1.3520
    27         H         -5.7744     -0.1086      0.3916
    28         H         -3.9016     -4.5493      0.1420
    29         H         -0.0390     -1.5775      0.0627
    30         H          0.4007      2.6852      0.2529
    31         H         -2.0005      2.9685      0.3552
    32         H          2.1217      1.9897     -1.3244
    33         H          4.5560      1.7311     -1.4326
    34         H          6.5175     -0.4447      0.8379
    35         H          6.6173      0.8592     -0.3801
    36         H          6.2940     -0.6319     -1.9935
    37         H          4.3374     -1.5694      1.3295
    38         H          1.9051     -1.3030      1.4636

 General Reference for PM7:
 "Optimization of Parameters for Semiempirical Methods VI: More Modifications to the 
 NDDO Approximations and Re-optimization of Parameters", J. J. P. Stewart, J. Mol. Mod., 1:32, 19 (2013)
 https://link.springer.com/article/10.1007/s00894-012-1667-x

           Empirical Formula: C18 H15 N3 O2  =    38 atoms



      MOLECULAR POINT GROUP   :   C1  


      RHF CALCULATION, NO. OF DOUBLY OCCUPIED LEVELS = 57


          Geometry optimization using L-BFGS
 CYCLE:     1 TIME:   0.047 TIME LEFT:  2.00D  GRAD.:   325.637 HEAT:  33.84294
 CYCLE:     2 TIME:   0.020 TIME LEFT:  2.00D  GRAD.:   316.336 HEAT:  32.79789
 CYCLE:     3 TIME:   0.027 TIME LEFT:  2.00D  GRAD.:    95.517 HEAT:  12.76754
 CYCLE:     4 TIME:   0.027 TIME LEFT:  2.00D  GRAD.:   316.428 HEAT:  32.79767
 CYCLE:     5 TIME:   0.027 TIME LEFT:  2.00D  GRAD.:    95.546 HEAT:  12.76695
 CYCLE:     6 TIME:   0.023 TIME LEFT:  2.00D  GRAD.:    55.085 HEAT:  10.60033
 CYCLE:     7 TIME:   0.023 TIME LEFT:  2.00D  GRAD.:    31.466 HEAT:  8.743930
 CYCLE:     8 TIME:   0.023 TIME LEFT:  2.00D  GRAD.:    33.044 HEAT:  7.990627
 CYCLE:     9 TIME:   0.023 TIME LEFT:  2.00D  GRAD.:    27.220 HEAT:  7.486396
 CYCLE:    10 TIME:   0.023 TIME LEFT:  2.00D  GRAD.:    14.013 HEAT:  7.217701
 CYCLE:    11 TIME:   0.023 TIME LEFT:  2.00D  GRAD.:    11.319 HEAT:  7.063331
 CYCLE:    12 TIME:   0.020 TIME LEFT:  2.00D  GRAD.:    13.201 HEAT:  6.954033
 CYCLE:    13 TIME:   0.023 TIME LEFT:  2.00D  GRAD.:    11.941 HEAT:  6.855339
 CYCLE:    14 TIME:   0.023 TIME LEFT:  2.00D  GRAD.:     7.712 HEAT:  6.788667
 CYCLE:    15 TIME:   0.020 TIME LEFT:  2.00D  GRAD.:     8.071 HEAT:  6.709222
 CYCLE:    16 TIME:   0.023 TIME LEFT:  2.00D  GRAD.:     9.013 HEAT:  6.642079
 CYCLE:    17 TIME:   0.023 TIME LEFT:  2.00D  GRAD.:    16.382 HEAT:  6.598094
 CYCLE:    18 TIME:   0.023 TIME LEFT:  2.00D  GRAD.:     6.814 HEAT:  6.525004
 CYCLE:    19 TIME:   0.023 TIME LEFT:  2.00D  GRAD.:     6.605 HEAT:  6.488666
 CYCLE:    20 TIME:   0.023 TIME LEFT:  2.00D  GRAD.:     8.460 HEAT:  6.427443
 CYCLE:    21 TIME:   0.023 TIME LEFT:  2.00D  GRAD.:    23.482 HEAT:  6.415020
 CYCLE:    22 TIME:   0.023 TIME LEFT:  2.00D  GRAD.:     7.267 HEAT:  6.335454
 CYCLE:    23 TIME:   0.023 TIME LEFT:  2.00D  GRAD.:     5.252 HEAT:  6.312075
 CYCLE:    24 TIME:   0.023 TIME LEFT:  2.00D  GRAD.:     6.435 HEAT:  6.274324
 CYCLE:    25 TIME:   0.020 TIME LEFT:  2.00D  GRAD.:    10.009 HEAT:  6.247386
 CYCLE:    26 TIME:   0.023 TIME LEFT:  2.00D  GRAD.:     5.363 HEAT:  6.218899
 CYCLE:    27 TIME:   0.023 TIME LEFT:  2.00D  GRAD.:     3.982 HEAT:  6.200543
 CYCLE:    28 TIME:   0.020 TIME LEFT:  2.00D  GRAD.:     5.144 HEAT:  6.184741
 CYCLE:    29 TIME:   0.023 TIME LEFT:  2.00D  GRAD.:     5.784 HEAT:  6.163054
 CYCLE:    30 TIME:   0.020 TIME LEFT:  2.00D  GRAD.:     5.200 HEAT:  6.149011
 CYCLE:    31 TIME:   0.023 TIME LEFT:  2.00D  GRAD.:     3.652 HEAT:  6.137192
 CYCLE:    32 TIME:   0.023 TIME LEFT:  2.00D  GRAD.:     3.885 HEAT:  6.118381
 CYCLE:    33 TIME:   0.023 TIME LEFT:  2.00D  GRAD.:     4.706 HEAT:  6.103331
 CYCLE:    34 TIME:   0.020 TIME LEFT:  2.00D  GRAD.:     6.540 HEAT:  6.098945
 CYCLE:    35 TIME:   0.023 TIME LEFT:  2.00D  GRAD.:     2.435 HEAT:  6.088202
 CYCLE:    36 TIME:   0.020 TIME LEFT:  2.00D  GRAD.:     2.281 HEAT:  6.084006
 CYCLE:    37 TIME:   0.023 TIME LEFT:  2.00D  GRAD.:     2.670 HEAT:  6.077846
 CYCLE:    38 TIME:   0.023 TIME LEFT:  2.00D  GRAD.:     7.177 HEAT:  6.076473
 CYCLE:    39 TIME:   0.023 TIME LEFT:  2.00D  GRAD.:     1.898 HEAT:  6.068613
 CYCLE:    40 TIME:   0.020 TIME LEFT:  2.00D  GRAD.:     1.546 HEAT:  6.067209
 CYCLE:    41 TIME:   0.023 TIME LEFT:  2.00D  GRAD.:     1.768 HEAT:  6.064064
 CYCLE:    42 TIME:   0.023 TIME LEFT:  2.00D  GRAD.:     3.517 HEAT:  6.059018
 CYCLE:    43 TIME:   0.023 TIME LEFT:  2.00D  GRAD.:     2.477 HEAT:  6.054014
 CYCLE:    44 TIME:   0.020 TIME LEFT:  2.00D  GRAD.:     1.851 HEAT:  6.049727
 CYCLE:    45 TIME:   0.027 TIME LEFT:  2.00D  GRAD.:     2.354 HEAT:  6.044184
 CYCLE:    46 TIME:   0.023 TIME LEFT:  2.00D  GRAD.:     4.486 HEAT:  6.041427
 CYCLE:    47 TIME:   0.020 TIME LEFT:  2.00D  GRAD.:     2.063 HEAT:  6.037382
 CYCLE:    48 TIME:   0.023 TIME LEFT:  2.00D  GRAD.:     1.284 HEAT:  6.034515
 CYCLE:    49 TIME:   0.023 TIME LEFT:  2.00D  GRAD.:     1.432 HEAT:  6.032899
 CYCLE:    50 TIME:   0.023 TIME LEFT:  2.00D  GRAD.:     1.518 HEAT:  6.029955
 CYCLE:    51 TIME:   0.023 TIME LEFT:  2.00D  GRAD.:     4.632 HEAT:  6.031141
 CYCLE:    52 TIME:   0.023 TIME LEFT:  2.00D  GRAD.:     1.002 HEAT:  6.027428
 CYCLE:    53 TIME:   0.020 TIME LEFT:  2.00D  GRAD.:     0.843 HEAT:  6.026929

 -------------------------------------------------------------------------------
 PM7 XYZ

 Lipophilicity_1441 - geometry optimisation


     HERBERTS TEST WAS SATISFIED IN BFGS                      
     SCF FIELD WAS ACHIEVED                                   


                              PM7 CALCULATION
                                                       MOPAC v23.0.3 Linux
                                                       Fri Jul 25 17:10:10 2025




          FINAL HEAT OF FORMATION =          6.02693 KCAL/MOL =      25.21667 KJ/MOL


          COSMO AREA              =        317.82 SQUARE ANGSTROMS
          COSMO VOLUME            =        350.42 CUBIC ANGSTROMS

          GRADIENT NORM           =          0.84271          =       0.13671 PER ATOM
          IONIZATION POTENTIAL    =          8.673306 EV
          HOMO LUMO ENERGIES (EV) =         -8.673 -1.186
          NO. OF FILLED LEVELS    =         57
          MOLECULAR WEIGHT        =        305.3354         POINT GROUP:  C1  

          MOLECULAR DIMENSIONS (Angstroms)

            Atom       Atom       Distance
            H    24    O    21    12.59385
            H    33    H    28     8.30155
            H    37    H    36     2.95208


          SCF CALCULATIONS        =         54

          WALL-CLOCK TIME         =      1.262 SECONDS
          COMPUTATION TIME        =     25.228 SECONDS




   ATOM   CHEMICAL          X               Y               Z
  NUMBER   SYMBOL      (ANGSTROMS)     (ANGSTROMS)     (ANGSTROMS)

     1       C         -4.49418962  *   2.33942294  *   0.43537225  *
     2       C         -3.90030859  *   0.97576346  *   0.35573660  *
     3       C         -4.70655661  *  -0.11515610  *   0.33998455  *
     4       C         -4.12722208  *  -1.42294410  *   0.26326303  *
     5       N         -4.69561677  *  -2.63082517  *   0.24707723  *
     6       N         -3.67118568  *  -3.55131410  *   0.17047429  *
     7       C         -2.40511763  *  -2.95363123  *   0.13675910  *
     8       O         -1.32449423  *  -3.48171260  *   0.07868857  *
     9       N         -2.70796138  *  -1.55765245  *   0.19339089  *
    10       C         -1.86283319  *  -0.44722804  *   0.19529217  *
    11       C         -0.47120410  *  -0.60986443  *   0.10650246  *
    12       C          0.35066801  *   0.50845520  *   0.13440197  *
    13       C         -0.21727809  *   1.78964930  *   0.24625480  *
    14       C         -1.59012638  *   1.94474051  *   0.31720164  *
    15       C         -2.45282069  *   0.83675307  *   0.29052954  *
    16       C          1.80885132  *   0.35602571  *   0.05913762  *
    17       C          2.56387663  *   1.20359970  *  -0.75780396  *
    18       C          3.94885671  *   1.07646928  *  -0.80279827  *
    19       C          4.58710059  *   0.09869836  *  -0.03823383  *
    20       C          6.07984184  *  -0.04089481  *  -0.10190190  *
    21       O          6.46038310  *  -0.96265967  *  -1.10628032  *
    22       C          3.83430826  *  -0.76194060  *   0.76035930  *
    23       C          2.44902477  *  -0.63386582  *   0.81115837  *
    24       H         -5.59373325  *   2.32166729  *   0.48009044  *
    25       H         -4.22490062  *   2.94724252  *  -0.44314757  *
    26       H         -4.15141077  *   2.87673594  *   1.33384687  *
    27       H         -5.79386970  *  -0.05821861  *   0.38408244  *
    28       H         -3.90939754  *  -4.52403588  *   0.14859226  *
    29       H         -0.04262585  *  -1.61357504  *   0.00971254  *
    30       H          0.43228383  *   2.66290662  *   0.28504030  *
    31       H         -2.00909329  *   2.94865361  *   0.39814633  *
    32       H          2.06776434  *   1.95986703  *  -1.36471703  *
    33       H          4.53311883  *   1.74461862  *  -1.43291999  *
    34       H          6.51507953  *  -0.48429028  *   0.81598243  *
    35       H          6.58837578  *   0.92128774  *  -0.30486204  *
    36       H          5.93991960  *  -0.81685192  *  -1.92248422  *
    37       H          4.32979319  *  -1.53997150  *   1.34121164  *
    38       H          1.86269964  *  -1.30592501  *   1.44010114  *

                             CARTESIAN COORDINATES

   1    C       -4.494189624     2.339422936     0.435372250
   2    C       -3.900308594     0.975763460     0.355736599
   3    C       -4.706556608    -0.115156102     0.339984545
   4    C       -4.127222080    -1.422944102     0.263263028
   5    N       -4.695616767    -2.630825171     0.247077231
   6    N       -3.671185683    -3.551314102     0.170474287
   7    C       -2.405117633    -2.953631229     0.136759101
   8    O       -1.324494225    -3.481712604     0.078688575
   9    N       -2.707961377    -1.557652450     0.193390887
  10    C       -1.862833189    -0.447228039     0.195292169
  11    C       -0.471204103    -0.609864433     0.106502457
  12    C        0.350668014     0.508455196     0.134401967
  13    C       -0.217278087     1.789649301     0.246254797
  14    C       -1.590126379     1.944740512     0.317201639
  15    C       -2.452820686     0.836753070     0.290529544
  16    C        1.808851320     0.356025713     0.059137615
  17    C        2.563876626     1.203599698    -0.757803955
  18    C        3.948856707     1.076469282    -0.802798273
  19    C        4.587100593     0.098698360    -0.038233829
  20    C        6.079841839    -0.040894806    -0.101901899
  21    O        6.460383098    -0.962659668    -1.106280318
  22    C        3.834308255    -0.761940595     0.760359301
  23    C        2.449024765    -0.633865816     0.811158366
  24    H       -5.593733246     2.321667285     0.480090437
  25    H       -4.224900621     2.947242519    -0.443147571
  26    H       -4.151410770     2.876735941     1.333846870
  27    H       -5.793869702    -0.058218611     0.384082442
  28    H       -3.909397540    -4.524035878     0.148592257
  29    H       -0.042625851    -1.613575040     0.009712540
  30    H        0.432283832     2.662906617     0.285040305
  31    H       -2.009093291     2.948653609     0.398146329
  32    H        2.067764341     1.959867029    -1.364717033
  33    H        4.533118829     1.744618617    -1.432919993
  34    H        6.515079527    -0.484290277     0.815982428
  35    H        6.588375782     0.921287738    -0.304862035
  36    H        5.939919598    -0.816851920    -1.922484223
  37    H        4.329793186    -1.539971495     1.341211642
  38    H        1.862699643    -1.305925007     1.440101143


           Empirical Formula: C18 H15 N3 O2  =    38 atoms



      MOLECULAR POINT GROUP   :   C1  


                  EIGENVALUES  
 -41.01572 -36.60208 -31.96508 -31.38564 -30.89748 -30.06598 -29.75662 -29.34914
 -27.37199 -26.72937 -26.23085 -25.68119 -25.58623 -23.65514 -23.35073 -21.83402
 -21.72472 -21.45014 -20.50591 -20.35854 -18.95581 -18.64600 -17.88302 -17.23501
 -16.98624 -16.84141 -16.55042 -16.33507 -15.89183 -15.63001 -15.43453 -15.27485
 -15.10585 -14.97468 -14.81022 -14.57907 -14.50229 -14.19816 -14.09142 -13.65339
 -13.55158 -13.43709 -13.31541 -13.08511 -12.57026 -12.42017 -12.29115 -12.12616
 -11.93046 -11.50271 -10.93865 -10.71749 -10.58200 -10.13811  -9.85883  -9.59844
  -8.67331  -1.18569  -0.55453  -0.22238  -0.04745   0.23239   0.33288   1.07380
   1.24084   1.61296   2.05650   2.30564   2.56913   2.99921   3.04484   3.21149
   3.43676   3.55775   3.72560   3.87551   3.89756   4.04837   4.24461   4.30308
   4.40936   4.55492   4.63492   4.74483   4.77740   4.80238   4.89527   4.97310
   5.01558   5.04429   5.12295   5.26661   5.35609   5.40510   5.45326   5.48765
   5.54564   5.66030   5.73970   5.79578   5.86851   5.92695   6.01652   6.04306
   6.10049   6.17441   6.24401


              NET ATOMIC CHARGES AND DIPOLE CONTRIBUTIONS

  ATOM NO.   TYPE          CHARGE      No. of ELECS.   s-Pop       p-Pop       
    1          C          -0.457669        4.4577     1.05031     3.40736
    2          C           0.118530        3.8815     1.07218     2.80929
    3          C          -0.251891        4.2519     1.07160     3.18029
    4          C           0.248237        3.7518     1.06885     2.68291
    5          N          -0.243409        5.2434     1.79393     3.44948
    6          N          -0.388251        5.3883     1.54235     3.84590
    7          C           0.633191        3.3668     1.03743     2.32938
    8          O          -0.479096        6.4791     1.87980     4.59930
    9          N          -0.433887        5.4339     1.56071     3.87318
   10          C           0.246741        3.7533     1.05545     2.69781
   11          C          -0.233126        4.2331     1.08447     3.14866
   12          C           0.064685        3.9353     1.06743     2.86788
   13          C          -0.203540        4.2035     1.08084     3.12271
   14          C          -0.081702        4.0817     1.08469     2.99701
   15          C          -0.139969        4.1400     1.05755     3.08242
   16          C          -0.020019        4.0200     1.06314     2.95688
   17          C          -0.145687        4.1457     1.08432     3.06137
   18          C          -0.161501        4.1615     1.08420     3.07730
   19          C          -0.062303        4.0623     1.07716     2.98515
   20          C          -0.017448        4.0174     1.08146     2.93599
   21          O          -0.529971        6.5300     1.85249     4.67748
   22          C          -0.133936        4.1339     1.08621     3.04773
   23          C          -0.135509        4.1355     1.08711     3.04840
   24          H           0.165032        0.8350     0.83497
   25          H           0.168724        0.8313     0.83128
   26          H           0.168645        0.8314     0.83135
   27          H           0.191778        0.8082     0.80822
   28          H           0.361387        0.6386     0.63861
   29          H           0.208731        0.7913     0.79127
   30          H           0.162797        0.8372     0.83720
   31          H           0.156320        0.8437     0.84368
   32          H           0.156265        0.8437     0.84373
   33          H           0.151422        0.8486     0.84858
   34          H           0.149688        0.8503     0.85031
   35          H           0.124452        0.8755     0.87555
   36          H           0.313736        0.6863     0.68626
   37          H           0.160899        0.8391     0.83910
   38          H           0.167652        0.8323     0.83235
 DIPOLE           X         Y         Z       TOTAL
 POINT-CHG.    -1.648     5.481     0.815     5.781
 HYBRID         0.304    -0.392    -0.491     0.698
 SUM           -1.345     5.089     0.324     5.274


          ATOMIC ORBITAL ELECTRON POPULATIONS

     Atom    s        px        py        pz   
    1  C   1.05031   1.16896   1.05595   1.18245
    2  C   1.07218   0.94996   0.96929   0.89005
    3  C   1.07160   1.10336   0.94504   1.13189
    4  C   1.06885   0.76415   0.93091   0.98784
    5  N   1.79393   1.13887   1.01648   1.29413
    6  N   1.54235   1.05669   1.13549   1.65373
    7  C   1.03743   0.78080   0.74851   0.80007
    8  O   1.87980   1.30282   1.68757   1.60891
    9  N   1.56071   1.13361   1.13925   1.60031
   10  C   1.05545   0.91634   0.83797   0.94349
   11  C   1.08447   0.97521   1.10188   1.07157
   12  C   1.06743   0.96830   0.97135   0.92824
   13  C   1.08084   1.01916   1.05145   1.05209
   14  C   1.08469   0.99144   1.05476   0.95082
   15  C   1.05755   0.98418   0.97928   1.11895
   16  C   1.06314   0.96200   0.99541   0.99947
   17  C   1.08432   1.00208   1.03551   1.02378
   18  C   1.08420   1.01613   1.03053   1.03064
   19  C   1.07716   0.99502   0.99273   0.99739
   20  C   1.08146   0.96984   1.00294   0.96321
   21  O   1.85249   1.69100   1.62266   1.36382
   22  C   1.08621   1.00341   1.02977   1.01454
   23  C   1.08711   1.01190   1.01593   1.02056
   24  H   0.83497
   25  H   0.83128
   26  H   0.83135
   27  H   0.80822
   28  H   0.63861
   29  H   0.79127
   30  H   0.83720
   31  H   0.84368
   32  H   0.84373
   33  H   0.84858
   34  H   0.85031
   35  H   0.87555
   36  H   0.68626
   37  H   0.83910
   38  H   0.83235

 **********************
 *                    *
 * JOB ENDED NORMALLY *
 *                    *
 **********************



 TOTAL JOB TIME:             1.27 SECONDS

 == MOPAC DONE ==
