 *******************************************************************************
 **                                                                           **
 **                              MOPAC v23.0.3                                **
 **                                                                           **
 *******************************************************************************
 **          Digital Object Identifier (DOI): 10.5281/zenodo.6511958          **
 **    Visit the DOI location for information on how to cite this program.    **
 *******************************************************************************

                              PM7 CALCULATION RESULTS

 *******************************************************************************
 *  CALCULATION DONE:                                Fri Jul 25 16:17:55 2025  *
 *  PM7        - The PM7 Hamiltonian to be used
 *  XYZ        - CARTESIAN COORDINATE SYSTEM TO BE USED
 *  T=         - A TIME OF 172800.0 SECONDS REQUESTED
 *  DUMP=N     - RESTART FILE WRITTEN EVERY 7200.0 SECONDS REQUESTED
 *******************************************************************************
PM7 XYZ

 Lipophilicity_113 - geometry optimisation
   ATOM   CHEMICAL          X               Y               Z
  NUMBER   SYMBOL      (ANGSTROMS)     (ANGSTROMS)     (ANGSTROMS)

     1       C         -8.50652800  *  -1.73398000  *   2.22226500  *
     2       O         -8.39167700  *  -0.57571900  *   1.40174800  *
     3       C         -7.20972800  *  -0.16948100  *   0.76398600  *
     4       C         -6.00471700  *  -0.88734000  *   0.88120600  *
     5       C         -4.84959400  *  -0.44926300  *   0.21612200  *
     6       C         -3.55840600  *  -1.21086900  *   0.35709600  *
     7       C         -2.77802200  *  -0.72957200  *   1.58219000  *
     8       C         -1.47740300  *  -1.46278800  *   1.69027800  *
     9       C         -0.29151500  *  -1.10427800  *   1.08293400  *
    10       C          0.56549700  *  -2.14236400  *   1.40608800  *
    11       N          1.95202800  *  -2.24560400  *   1.05144700  *
    12       C          2.56673800  *  -1.53729600  *  -0.03538800  *
    13       C          1.86929500  *  -1.26472100  *  -1.22102700  *
    14       C          2.53253400  *  -0.59379000  *  -2.24654000  *
    15       N          3.83293700  *  -0.23714600  *  -2.09378800  *
    16       C          4.51094400  *  -0.53115300  *  -0.95094600  *
    17       N          5.88687300  *  -0.16457300  *  -0.80643600  *
    18       C          6.60159700  *   0.56151600  *  -1.85516100  *
    19       C          8.04006100  *   0.74145100  *  -1.48682300  *
    20       O          9.00544900  *  -0.07638900  *  -1.84014300  *
    21       N         10.15023300  *   0.31554400  *  -1.35818000  *
    22       C          9.90834700  *   1.43412100  *  -0.64517700  *
    23       C         10.96774600  *   2.24089300  *   0.03001900  *
    24       C          8.56642400  *   1.75062300  *  -0.70787700  *
    25       N          3.87620200  *  -1.18156800  *   0.06055100  *
    26       N         -0.06823900  *  -3.05405300  *   2.16999700  *
    27       N         -1.31503600  *  -2.63843000  *   2.32585600  *
    28       C         -4.89537300  *   0.72828200  *  -0.54597100  *
    29       C         -6.08563000  *   1.45142800  *  -0.67273900  *
    30       O         -6.07688700  *   2.61427000  *  -1.45823500  *
    31       C         -7.21524600  *   3.43831600  *  -1.68863400  *
    32       C         -7.24262100  *   0.99355300  *  -0.01432200  *
    33       H         -7.82683000  *  -1.65098700  *   3.09705800  *
    34       H         -8.26352600  *  -2.64494200  *   1.63449500  *
    35       H         -9.54973900  *  -1.81596300  *   2.58994900  *
    36       H         -5.95615700  *  -1.78482100  *   1.48366600  *
    37       H         -2.93961100  *  -1.07689300  *  -0.55862100  *
    38       H         -3.77205100  *  -2.29869400  *   0.45342300  *
    39       H         -3.37543500  *  -0.90464500  *   2.50342900  *
    40       H         -2.57844400  *   0.36101100  *   1.49962100  *
    41       H         -0.08731700  *  -0.21451800  *   0.50253700  *
    42       H          2.56390300  *  -2.83806900  *   1.65744600  *
    43       H          0.84421300  *  -1.58214500  *  -1.36213400  *
    44       H          2.01643200  *  -0.36416200  *  -3.16889500  *
    45       H          6.38091600  *  -0.43181500  *   0.07680800  *
    46       H          6.12881200  *   1.55446500  *  -2.00764800  *
    47       H          6.54432800  *  -0.00875900  *  -2.80654000  *
    48       H         10.55462500  *   2.72884600  *   0.93865000  *
    49       H         11.33780000  *   3.02150000  *  -0.66700700  *
    50       H         11.81262500  *   1.58367700  *   0.32702400  *
    51       H          8.05136500  *   2.58924200  *  -0.25566900  *
    52       H         -2.04628600  *  -3.16245800  *   2.85764500  *
    53       H         -4.00315700  *   1.08464400  *  -1.04672200  *
    54       H         -8.01286800  *   2.85430900  *  -2.19523100  *
    55       H         -6.92365900  *   4.28459700  *  -2.34402000  *
    56       H         -7.59101700  *   3.84729300  *  -0.72691900  *
    57       H         -8.17521000  *   1.53448600  *  -0.09674300  *



          CARTESIAN COORDINATES 

    NO.       ATOM           X           Y           Z

     1         C         -8.5065     -1.7340      2.2223
     2         O         -8.3917     -0.5757      1.4017
     3         C         -7.2097     -0.1695      0.7640
     4         C         -6.0047     -0.8873      0.8812
     5         C         -4.8496     -0.4493      0.2161
     6         C         -3.5584     -1.2109      0.3571
     7         C         -2.7780     -0.7296      1.5822
     8         C         -1.4774     -1.4628      1.6903
     9         C         -0.2915     -1.1043      1.0829
    10         C          0.5655     -2.1424      1.4061
    11         N          1.9520     -2.2456      1.0514
    12         C          2.5667     -1.5373     -0.0354
    13         C          1.8693     -1.2647     -1.2210
    14         C          2.5325     -0.5938     -2.2465
    15         N          3.8329     -0.2371     -2.0938
    16         C          4.5109     -0.5312     -0.9509
    17         N          5.8869     -0.1646     -0.8064
    18         C          6.6016      0.5615     -1.8552
    19         C          8.0401      0.7415     -1.4868
    20         O          9.0054     -0.0764     -1.8401
    21         N         10.1502      0.3155     -1.3582
    22         C          9.9083      1.4341     -0.6452
    23         C         10.9677      2.2409      0.0300
    24         C          8.5664      1.7506     -0.7079
    25         N          3.8762     -1.1816      0.0606
    26         N         -0.0682     -3.0541      2.1700
    27         N         -1.3150     -2.6384      2.3259
    28         C         -4.8954      0.7283     -0.5460
    29         C         -6.0856      1.4514     -0.6727
    30         O         -6.0769      2.6143     -1.4582
    31         C         -7.2152      3.4383     -1.6886
    32         C         -7.2426      0.9936     -0.0143
    33         H         -7.8268     -1.6510      3.0971
    34         H         -8.2635     -2.6449      1.6345
    35         H         -9.5497     -1.8160      2.5899
    36         H         -5.9562     -1.7848      1.4837
    37         H         -2.9396     -1.0769     -0.5586
    38         H         -3.7721     -2.2987      0.4534
    39         H         -3.3754     -0.9046      2.5034
    40         H         -2.5784      0.3610      1.4996
    41         H         -0.0873     -0.2145      0.5025
    42         H          2.5639     -2.8381      1.6574
    43         H          0.8442     -1.5821     -1.3621
    44         H          2.0164     -0.3642     -3.1689
    45         H          6.3809     -0.4318      0.0768
    46         H          6.1288      1.5545     -2.0076
    47         H          6.5443     -0.0088     -2.8065
    48         H         10.5546      2.7288      0.9387
    49         H         11.3378      3.0215     -0.6670
    50         H         11.8126      1.5837      0.3270
    51         H          8.0514      2.5892     -0.2557
    52         H         -2.0463     -3.1625      2.8576
    53         H         -4.0032      1.0846     -1.0467
    54         H         -8.0129      2.8543     -2.1952
    55         H         -6.9237      4.2846     -2.3440
    56         H         -7.5910      3.8473     -0.7269
    57         H         -8.1752      1.5345     -0.0967

 General Reference for PM7:
 "Optimization of Parameters for Semiempirical Methods VI: More Modifications to the 
 NDDO Approximations and Re-optimization of Parameters", J. J. P. Stewart, J. Mol. Mod., 1:32, 19 (2013)
 https://link.springer.com/article/10.1007/s00894-012-1667-x

           Empirical Formula: C22 H25 N7 O3  =    57 atoms



      MOLECULAR POINT GROUP   :   C1  


      RHF CALCULATION, NO. OF DOUBLY OCCUPIED LEVELS = 83


          Geometry optimization using L-BFGS
 CYCLE:     1 TIME:   0.098 TIME LEFT:  2.00D  GRAD.:   318.611 HEAT:  77.81882
 CYCLE:     2 TIME:   0.043 TIME LEFT:  2.00D  GRAD.:   310.738 HEAT:  76.81628
 CYCLE:     3 TIME:   0.059 TIME LEFT:  2.00D  GRAD.:    72.492 HEAT:  52.92599
 CYCLE:     4 TIME:   0.059 TIME LEFT:  2.00D  GRAD.:   310.802 HEAT:  76.81589
 CYCLE:     5 TIME:   0.059 TIME LEFT:  2.00D  GRAD.:    72.466 HEAT:  52.92435
 CYCLE:     6 TIME:   0.047 TIME LEFT:  2.00D  GRAD.:    62.753 HEAT:  50.29677
 CYCLE:     7 TIME:   0.047 TIME LEFT:  2.00D  GRAD.:    66.596 HEAT:  45.64532
 CYCLE:     8 TIME:   0.047 TIME LEFT:  2.00D  GRAD.:   102.692 HEAT:  43.15633
 CYCLE:     9 TIME:   0.059 TIME LEFT:  2.00D  GRAD.:    44.101 HEAT:  40.43736
 CYCLE:    10 TIME:   0.047 TIME LEFT:  2.00D  GRAD.:    28.851 HEAT:  39.17511
 CYCLE:    11 TIME:   0.047 TIME LEFT:  2.00D  GRAD.:    31.203 HEAT:  38.35664
 CYCLE:    12 TIME:   0.047 TIME LEFT:  2.00D  GRAD.:    48.595 HEAT:  37.85394
 CYCLE:    13 TIME:   0.047 TIME LEFT:  2.00D  GRAD.:    19.054 HEAT:  37.29840
 CYCLE:    14 TIME:   0.043 TIME LEFT:  2.00D  GRAD.:    15.928 HEAT:  37.04742
 CYCLE:    15 TIME:   0.043 TIME LEFT:  2.00D  GRAD.:    18.126 HEAT:  36.80475
 CYCLE:    16 TIME:   0.047 TIME LEFT:  2.00D  GRAD.:    30.391 HEAT:  36.45218
 CYCLE:    17 TIME:   0.051 TIME LEFT:  2.00D  GRAD.:    18.321 HEAT:  36.15151
 CYCLE:    18 TIME:   0.043 TIME LEFT:  2.00D  GRAD.:    11.300 HEAT:  35.98883
 CYCLE:    19 TIME:   0.043 TIME LEFT:  2.00D  GRAD.:    12.585 HEAT:  35.81353
 CYCLE:    20 TIME:   0.047 TIME LEFT:  2.00D  GRAD.:    18.694 HEAT:  35.69013
 CYCLE:    21 TIME:   0.043 TIME LEFT:  2.00D  GRAD.:    11.565 HEAT:  35.54901
 CYCLE:    22 TIME:   0.043 TIME LEFT:  2.00D  GRAD.:     9.853 HEAT:  35.44408
 CYCLE:    23 TIME:   0.047 TIME LEFT:  2.00D  GRAD.:     9.279 HEAT:  35.39557
 CYCLE:    24 TIME:   0.043 TIME LEFT:  2.00D  GRAD.:     6.710 HEAT:  35.35838
 CYCLE:    25 TIME:   0.047 TIME LEFT:  2.00D  GRAD.:     6.501 HEAT:  35.30057
 CYCLE:    26 TIME:   0.043 TIME LEFT:  2.00D  GRAD.:     9.313 HEAT:  35.28181
 CYCLE:    27 TIME:   0.047 TIME LEFT:  2.00D  GRAD.:     5.029 HEAT:  35.26046
 CYCLE:    28 TIME:   0.043 TIME LEFT:  2.00D  GRAD.:     3.405 HEAT:  35.23877
 CYCLE:    29 TIME:   0.043 TIME LEFT:  2.00D  GRAD.:     3.395 HEAT:  35.22735
 CYCLE:    30 TIME:   0.047 TIME LEFT:  2.00D  GRAD.:     6.389 HEAT:  35.21100
 CYCLE:    31 TIME:   0.043 TIME LEFT:  2.00D  GRAD.:     3.463 HEAT:  35.19583
 CYCLE:    32 TIME:   0.043 TIME LEFT:  2.00D  GRAD.:     2.566 HEAT:  35.18793
 CYCLE:    33 TIME:   0.047 TIME LEFT:  2.00D  GRAD.:     3.142 HEAT:  35.17696
 CYCLE:    34 TIME:   0.043 TIME LEFT:  2.00D  GRAD.:     6.108 HEAT:  35.17040
 CYCLE:    35 TIME:   0.047 TIME LEFT:  2.00D  GRAD.:     3.064 HEAT:  35.16104
 CYCLE:    36 TIME:   0.043 TIME LEFT:  2.00D  GRAD.:     2.267 HEAT:  35.15305
 CYCLE:    37 TIME:   0.043 TIME LEFT:  2.00D  GRAD.:     2.605 HEAT:  35.14767
 CYCLE:    38 TIME:   0.051 TIME LEFT:  2.00D  GRAD.:     7.423 HEAT:  35.14247
 CYCLE:    39 TIME:   0.043 TIME LEFT:  2.00D  GRAD.:     2.536 HEAT:  35.13078
 CYCLE:    40 TIME:   0.043 TIME LEFT:  2.00D  GRAD.:     2.027 HEAT:  35.12634
 CYCLE:    41 TIME:   0.043 TIME LEFT:  2.00D  GRAD.:     2.353 HEAT:  35.11987
 CYCLE:    42 TIME:   0.051 TIME LEFT:  2.00D  GRAD.:     4.724 HEAT:  35.11115
 CYCLE:    43 TIME:   0.043 TIME LEFT:  2.00D  GRAD.:     3.037 HEAT:  35.10030
 CYCLE:    44 TIME:   0.043 TIME LEFT:  2.00D  GRAD.:     2.621 HEAT:  35.08973
 CYCLE:    45 TIME:   0.047 TIME LEFT:  2.00D  GRAD.:     4.386 HEAT:  35.07808
 CYCLE:    46 TIME:   0.047 TIME LEFT:  2.00D  GRAD.:     4.534 HEAT:  35.06495
 CYCLE:    47 TIME:   0.043 TIME LEFT:  2.00D  GRAD.:     3.536 HEAT:  35.05332
 CYCLE:    48 TIME:   0.047 TIME LEFT:  2.00D  GRAD.:     4.068 HEAT:  35.03612
 CYCLE:    49 TIME:   0.043 TIME LEFT:  2.00D  GRAD.:     4.952 HEAT:  35.02649
 CYCLE:    50 TIME:   0.047 TIME LEFT:  2.00D  GRAD.:     3.849 HEAT:  35.01691
 CYCLE:    51 TIME:   0.047 TIME LEFT:  2.00D  GRAD.:     3.894 HEAT:  34.99930
 CYCLE:    52 TIME:   0.043 TIME LEFT:  2.00D  GRAD.:     5.775 HEAT:  34.99133
 CYCLE:    53 TIME:   0.047 TIME LEFT:  2.00D  GRAD.:     3.901 HEAT:  34.98201
 CYCLE:    54 TIME:   0.043 TIME LEFT:  2.00D  GRAD.:     3.800 HEAT:  34.96112
 CYCLE:    55 TIME:   0.047 TIME LEFT:  2.00D  GRAD.:     4.175 HEAT:  34.94286
 CYCLE:    56 TIME:   0.047 TIME LEFT:  2.00D  GRAD.:     6.564 HEAT:  34.92773
 CYCLE:    57 TIME:   0.051 TIME LEFT:  2.00D  GRAD.:     4.154 HEAT:  34.90882
 CYCLE:    58 TIME:   0.047 TIME LEFT:  2.00D  GRAD.:     7.156 HEAT:  34.90114
 CYCLE:    59 TIME:   0.043 TIME LEFT:  2.00D  GRAD.:     4.943 HEAT:  34.88423
 CYCLE:    60 TIME:   0.047 TIME LEFT:  2.00D  GRAD.:     2.968 HEAT:  34.88091
 CYCLE:    61 TIME:   0.047 TIME LEFT:  2.00D  GRAD.:     2.492 HEAT:  34.87157
 CYCLE:    62 TIME:   0.051 TIME LEFT:  2.00D  GRAD.:     3.219 HEAT:  34.86641
 CYCLE:    63 TIME:   0.051 TIME LEFT:  2.00D  GRAD.:     7.480 HEAT:  34.85487
 CYCLE:    64 TIME:   0.043 TIME LEFT:  2.00D  GRAD.:     3.408 HEAT:  34.84006
 CYCLE:    65 TIME:   0.047 TIME LEFT:  2.00D  GRAD.:     2.602 HEAT:  34.83215
 CYCLE:    66 TIME:   0.051 TIME LEFT:  2.00D  GRAD.:     3.646 HEAT:  34.82119
 CYCLE:    67 TIME:   0.047 TIME LEFT:  2.00D  GRAD.:     4.519 HEAT:  34.80634
 CYCLE:    68 TIME:   0.047 TIME LEFT:  2.00D  GRAD.:     3.523 HEAT:  34.78865
 CYCLE:    69 TIME:   0.055 TIME LEFT:  2.00D  GRAD.:     5.172 HEAT:  34.77974
 CYCLE:    70 TIME:   0.043 TIME LEFT:  2.00D  GRAD.:     2.662 HEAT:  34.77096
 CYCLE:    71 TIME:   0.043 TIME LEFT:  2.00D  GRAD.:     2.571 HEAT:  34.76559
 CYCLE:    72 TIME:   0.043 TIME LEFT:  2.00D  GRAD.:     2.626 HEAT:  34.75953
 CYCLE:    73 TIME:   0.051 TIME LEFT:  2.00D  GRAD.:     6.265 HEAT:  34.75411
 CYCLE:    74 TIME:   0.043 TIME LEFT:  2.00D  GRAD.:     2.509 HEAT:  34.74438
 CYCLE:    75 TIME:   0.047 TIME LEFT:  2.00D  GRAD.:     2.491 HEAT:  34.73900
 CYCLE:    76 TIME:   0.043 TIME LEFT:  2.00D  GRAD.:     2.787 HEAT:  34.73145
 CYCLE:    77 TIME:   0.047 TIME LEFT:  2.00D  GRAD.:     3.601 HEAT:  34.72201
 CYCLE:    78 TIME:   0.047 TIME LEFT:  2.00D  GRAD.:     6.040 HEAT:  34.71923
 CYCLE:    79 TIME:   0.047 TIME LEFT:  2.00D  GRAD.:     2.440 HEAT:  34.70888
 CYCLE:    80 TIME:   0.051 TIME LEFT:  2.00D  GRAD.:     3.540 HEAT:  34.70738
 CYCLE:    81 TIME:   0.047 TIME LEFT:  2.00D  GRAD.:     4.474 HEAT:  34.69661
 CYCLE:    82 TIME:   0.051 TIME LEFT:  2.00D  GRAD.:     3.804 HEAT:  34.68546
 CYCLE:    83 TIME:   0.047 TIME LEFT:  2.00D  GRAD.:     4.804 HEAT:  34.67792
 CYCLE:    84 TIME:   0.047 TIME LEFT:  2.00D  GRAD.:     3.216 HEAT:  34.66768
 CYCLE:    85 TIME:   0.051 TIME LEFT:  2.00D  GRAD.:     3.468 HEAT:  34.65770
 CYCLE:    86 TIME:   0.043 TIME LEFT:  2.00D  GRAD.:     3.077 HEAT:  34.64927
 CYCLE:    87 TIME:   0.047 TIME LEFT:  2.00D  GRAD.:     3.750 HEAT:  34.64273
 CYCLE:    88 TIME:   0.047 TIME LEFT:  2.00D  GRAD.:     2.828 HEAT:  34.63463
 CYCLE:    89 TIME:   0.051 TIME LEFT:  2.00D  GRAD.:     3.405 HEAT:  34.62782
 CYCLE:    90 TIME:   0.051 TIME LEFT:  2.00D  GRAD.:     6.802 HEAT:  34.62284
 CYCLE:    91 TIME:   0.043 TIME LEFT:  2.00D  GRAD.:     2.735 HEAT:  34.61215
 CYCLE:    92 TIME:   0.047 TIME LEFT:  2.00D  GRAD.:     2.419 HEAT:  34.60511
 CYCLE:    93 TIME:   0.047 TIME LEFT:  2.00D  GRAD.:     3.225 HEAT:  34.59834
 CYCLE:    94 TIME:   0.047 TIME LEFT:  2.00D  GRAD.:     4.159 HEAT:  34.59007
 CYCLE:    95 TIME:   0.051 TIME LEFT:  2.00D  GRAD.:     6.744 HEAT:  34.59028
 CYCLE:    96 TIME:   0.043 TIME LEFT:  2.00D  GRAD.:     2.620 HEAT:  34.57305
 CYCLE:    97 TIME:   0.051 TIME LEFT:  2.00D  GRAD.:     3.573 HEAT:  34.57285
 CYCLE:    98 TIME:   0.051 TIME LEFT:  2.00D  GRAD.:    13.043 HEAT:  34.58921
 CYCLE:    99 TIME:   0.043 TIME LEFT:  2.00D  GRAD.:     2.184 HEAT:  34.55650
 CYCLE:   100 TIME:   0.047 TIME LEFT:  2.00D  GRAD.:     1.911 HEAT:  34.55382
 CYCLE:   101 TIME:   0.051 TIME LEFT:  2.00D  GRAD.:     1.763 HEAT:  34.54717
 CYCLE:   102 TIME:   0.055 TIME LEFT:  2.00D  GRAD.:     4.288 HEAT:  34.54169
 CYCLE:   103 TIME:   0.051 TIME LEFT:  2.00D  GRAD.:    24.874 HEAT:  34.66504
 CYCLE:   104 TIME:   0.051 TIME LEFT:  2.00D  GRAD.:     2.126 HEAT:  34.53307
 CYCLE:   105 TIME:   0.051 TIME LEFT:  2.00D  GRAD.:     1.954 HEAT:  34.52534
 CYCLE:   106 TIME:   0.051 TIME LEFT:  2.00D  GRAD.:     2.475 HEAT:  34.51958
 CYCLE:   107 TIME:   0.051 TIME LEFT:  2.00D  GRAD.:     3.068 HEAT:  34.51530
 CYCLE:   108 TIME:   0.047 TIME LEFT:  2.00D  GRAD.:     2.018 HEAT:  34.51105
 CYCLE:   109 TIME:   0.051 TIME LEFT:  2.00D  GRAD.:     2.313 HEAT:  34.50692
 CYCLE:   110 TIME:   0.047 TIME LEFT:  2.00D  GRAD.:     4.922 HEAT:  34.50324
 CYCLE:   111 TIME:   0.047 TIME LEFT:  2.00D  GRAD.:     1.987 HEAT:  34.49797
 CYCLE:   112 TIME:   0.043 TIME LEFT:  2.00D  GRAD.:     1.631 HEAT:  34.49482
 CYCLE:   113 TIME:   0.051 TIME LEFT:  2.00D  GRAD.:     2.616 HEAT:  34.49158
 CYCLE:   114 TIME:   0.043 TIME LEFT:  2.00D  GRAD.:     3.101 HEAT:  34.48637
 CYCLE:   115 TIME:   0.047 TIME LEFT:  2.00D  GRAD.:     2.004 HEAT:  34.47938
 CYCLE:   116 TIME:   0.051 TIME LEFT:  2.00D  GRAD.:     2.590 HEAT:  34.47612
 CYCLE:   117 TIME:   0.047 TIME LEFT:  2.00D  GRAD.:     2.185 HEAT:  34.47254
 CYCLE:   118 TIME:   0.043 TIME LEFT:  2.00D  GRAD.:     2.098 HEAT:  34.46856
 CYCLE:   119 TIME:   0.047 TIME LEFT:  2.00D  GRAD.:     2.394 HEAT:  34.46322
 CYCLE:   120 TIME:   0.047 TIME LEFT:  2.00D  GRAD.:     3.082 HEAT:  34.45760
 CYCLE:   121 TIME:   0.047 TIME LEFT:  2.00D  GRAD.:     3.046 HEAT:  34.45159
 CYCLE:   122 TIME:   0.051 TIME LEFT:  2.00D  GRAD.:     3.291 HEAT:  34.44237
 CYCLE:   123 TIME:   0.047 TIME LEFT:  2.00D  GRAD.:     3.851 HEAT:  34.43510
 CYCLE:   124 TIME:   0.051 TIME LEFT:  2.00D  GRAD.:     3.957 HEAT:  34.42764
 CYCLE:   125 TIME:   0.047 TIME LEFT:  2.00D  GRAD.:     3.658 HEAT:  34.41537
 CYCLE:   126 TIME:   0.047 TIME LEFT:  2.00D  GRAD.:     3.909 HEAT:  34.40281
 CYCLE:   127 TIME:   0.047 TIME LEFT:  2.00D  GRAD.:     3.804 HEAT:  34.39527
 CYCLE:   128 TIME:   0.047 TIME LEFT:  2.00D  GRAD.:     2.932 HEAT:  34.38590
 CYCLE:   129 TIME:   0.051 TIME LEFT:  2.00D  GRAD.:     5.041 HEAT:  34.37941
 CYCLE:   130 TIME:   0.043 TIME LEFT:  2.00D  GRAD.:    10.409 HEAT:  34.38449
 CYCLE:   131 TIME:   0.043 TIME LEFT:  2.00D  GRAD.:     3.226 HEAT:  34.35483
 CYCLE:   132 TIME:   0.051 TIME LEFT:  2.00D  GRAD.:     4.586 HEAT:  34.34916
 CYCLE:   133 TIME:   0.047 TIME LEFT:  2.00D  GRAD.:     3.762 HEAT:  34.33414
 CYCLE:   134 TIME:   0.047 TIME LEFT:  2.00D  GRAD.:     3.552 HEAT:  34.32217
 CYCLE:   135 TIME:   0.051 TIME LEFT:  2.00D  GRAD.:     3.699 HEAT:  34.31223
 CYCLE:   136 TIME:   0.047 TIME LEFT:  2.00D  GRAD.:    13.905 HEAT:  34.32024
 CYCLE:   137 TIME:   0.043 TIME LEFT:  2.00D  GRAD.:     3.859 HEAT:  34.28620
 CYCLE:   138 TIME:   0.047 TIME LEFT:  2.00D  GRAD.:     2.660 HEAT:  34.28124
 CYCLE:   139 TIME:   0.051 TIME LEFT:  2.00D  GRAD.:     3.524 HEAT:  34.27466
 CYCLE:   140 TIME:   0.047 TIME LEFT:  2.00D  GRAD.:     4.780 HEAT:  34.26575
 CYCLE:   141 TIME:   0.047 TIME LEFT:  2.00D  GRAD.:     8.193 HEAT:  34.25667
 CYCLE:   142 TIME:   0.043 TIME LEFT:  2.00D  GRAD.:     4.137 HEAT:  34.24210
 CYCLE:   143 TIME:   0.047 TIME LEFT:  2.00D  GRAD.:     3.008 HEAT:  34.23239
 CYCLE:   144 TIME:   0.047 TIME LEFT:  2.00D  GRAD.:     3.899 HEAT:  34.22409
 CYCLE:   145 TIME:   0.043 TIME LEFT:  2.00D  GRAD.:     3.996 HEAT:  34.21565
 CYCLE:   146 TIME:   0.047 TIME LEFT:  2.00D  GRAD.:     4.785 HEAT:  34.21056
 CYCLE:   147 TIME:   0.043 TIME LEFT:  2.00D  GRAD.:     8.629 HEAT:  34.20560
 CYCLE:   148 TIME:   0.047 TIME LEFT:  2.00D  GRAD.:     3.183 HEAT:  34.18997
 CYCLE:   149 TIME:   0.043 TIME LEFT:  2.00D  GRAD.:     2.571 HEAT:  34.18522
 CYCLE:   150 TIME:   0.051 TIME LEFT:  2.00D  GRAD.:     4.960 HEAT:  34.17976
 CYCLE:   151 TIME:   0.043 TIME LEFT:  2.00D  GRAD.:     5.018 HEAT:  34.16871
 CYCLE:   152 TIME:   0.047 TIME LEFT:  2.00D  GRAD.:     3.088 HEAT:  34.15772
 CYCLE:   153 TIME:   0.051 TIME LEFT:  2.00D  GRAD.:     5.288 HEAT:  34.14271
 CYCLE:   154 TIME:   0.047 TIME LEFT:  2.00D  GRAD.:     3.887 HEAT:  34.13166
 CYCLE:   155 TIME:   0.047 TIME LEFT:  2.00D  GRAD.:     5.289 HEAT:  34.11878
 CYCLE:   156 TIME:   0.043 TIME LEFT:  2.00D  GRAD.:     4.580 HEAT:  34.11008
 CYCLE:   157 TIME:   0.051 TIME LEFT:  2.00D  GRAD.:     4.373 HEAT:  34.10089
 CYCLE:   158 TIME:   0.047 TIME LEFT:  2.00D  GRAD.:     3.861 HEAT:  34.09193
 CYCLE:   159 TIME:   0.043 TIME LEFT:  2.00D  GRAD.:     3.302 HEAT:  34.08371
 CYCLE:   160 TIME:   0.047 TIME LEFT:  2.00D  GRAD.:     3.659 HEAT:  34.07477
 CYCLE:   161 TIME:   0.047 TIME LEFT:  2.00D  GRAD.:     4.972 HEAT:  34.07233
 CYCLE:   162 TIME:   0.047 TIME LEFT:  2.00D  GRAD.:     4.174 HEAT:  34.06506
 CYCLE:   163 TIME:   0.043 TIME LEFT:  2.00D  GRAD.:     3.835 HEAT:  34.05345
 CYCLE:   164 TIME:   0.043 TIME LEFT:  2.00D  GRAD.:     2.537 HEAT:  34.04717
 CYCLE:   165 TIME:   0.051 TIME LEFT:  2.00D  GRAD.:     3.192 HEAT:  34.04452
 CYCLE:   166 TIME:   0.047 TIME LEFT:  2.00D  GRAD.:     3.260 HEAT:  34.03624
 CYCLE:   167 TIME:   0.043 TIME LEFT:  2.00D  GRAD.:     2.757 HEAT:  34.02767
 CYCLE:   168 TIME:   0.047 TIME LEFT:  2.00D  GRAD.:     3.176 HEAT:  34.01838
 CYCLE:   169 TIME:   0.055 TIME LEFT:  2.00D  GRAD.:     4.082 HEAT:  34.01282
 CYCLE:   170 TIME:   0.047 TIME LEFT:  2.00D  GRAD.:    17.425 HEAT:  34.05209
 CYCLE:   171 TIME:   0.043 TIME LEFT:  2.00D  GRAD.:     3.795 HEAT:  33.98941
 CYCLE:   172 TIME:   0.047 TIME LEFT:  2.00D  GRAD.:     3.300 HEAT:  33.98501
 CYCLE:   173 TIME:   0.051 TIME LEFT:  2.00D  GRAD.:     4.097 HEAT:  33.98569
 CYCLE:   174 TIME:   0.047 TIME LEFT:  2.00D  GRAD.:    18.274 HEAT:  34.03389
 CYCLE:   175 TIME:   0.047 TIME LEFT:  2.00D  GRAD.:     3.166 HEAT:  33.96427
 CYCLE:   176 TIME:   0.051 TIME LEFT:  2.00D  GRAD.:     1.991 HEAT:  33.95740
 CYCLE:   177 TIME:   0.051 TIME LEFT:  2.00D  GRAD.:     2.961 HEAT:  33.94984
 CYCLE:   178 TIME:   0.051 TIME LEFT:  2.00D  GRAD.:     3.026 HEAT:  33.94194
 CYCLE:   179 TIME:   0.043 TIME LEFT:  2.00D  GRAD.:     3.554 HEAT:  33.93310
 CYCLE:   180 TIME:   0.047 TIME LEFT:  2.00D  GRAD.:     3.216 HEAT:  33.92289
 CYCLE:   181 TIME:   0.051 TIME LEFT:  2.00D  GRAD.:     4.324 HEAT:  33.91920
 CYCLE:   182 TIME:   0.051 TIME LEFT:  2.00D  GRAD.:     7.451 HEAT:  33.91905
 CYCLE:   183 TIME:   0.043 TIME LEFT:  2.00D  GRAD.:     2.258 HEAT:  33.90508
 CYCLE:   184 TIME:   0.047 TIME LEFT:  2.00D  GRAD.:     1.676 HEAT:  33.90166
 CYCLE:   185 TIME:   0.059 TIME LEFT:  2.00D  GRAD.:     4.546 HEAT:  33.90489
 CYCLE:   186 TIME:   0.047 TIME LEFT:  2.00D  GRAD.:     4.375 HEAT:  33.89216
 CYCLE:   187 TIME:   0.051 TIME LEFT:  2.00D  GRAD.:     4.607 HEAT:  33.89328
 CYCLE:   188 TIME:   0.043 TIME LEFT:  2.00D  GRAD.:     1.770 HEAT:  33.88595
 CYCLE:   189 TIME:   0.051 TIME LEFT:  2.00D  GRAD.:     9.839 HEAT:  33.89808
 CYCLE:   190 TIME:   0.051 TIME LEFT:  2.00D  GRAD.:     3.310 HEAT:  33.88706
 CYCLE:   191 TIME:   0.051 TIME LEFT:  2.00D  GRAD.:    11.478 HEAT:  33.90148
 CYCLE:   192 TIME:   0.047 TIME LEFT:  2.00D  GRAD.:     1.833 HEAT:  33.87564
 CYCLE:   193 TIME:   0.047 TIME LEFT:  2.00D  GRAD.:     1.369 HEAT:  33.87396
 CYCLE:   194 TIME:   0.051 TIME LEFT:  2.00D  GRAD.:     2.016 HEAT:  33.86610
 CYCLE:   195 TIME:   0.051 TIME LEFT:  2.00D  GRAD.:     8.264 HEAT:  33.86664
 CYCLE:   196 TIME:   0.043 TIME LEFT:  2.00D  GRAD.:     2.409 HEAT:  33.85234
 CYCLE:   197 TIME:   0.047 TIME LEFT:  2.00D  GRAD.:     2.394 HEAT:  33.84672
 CYCLE:   198 TIME:   0.051 TIME LEFT:  2.00D  GRAD.:     3.702 HEAT:  33.84022
 CYCLE:   199 TIME:   0.043 TIME LEFT:  2.00D  GRAD.:     4.599 HEAT:  33.83226
 CYCLE:   200 TIME:   0.051 TIME LEFT:  2.00D  GRAD.:     4.347 HEAT:  33.82054
 CYCLE:   201 TIME:   0.051 TIME LEFT:  2.00D  GRAD.:     7.418 HEAT:  33.81895
 CYCLE:   202 TIME:   0.047 TIME LEFT:  2.00D  GRAD.:     8.744 HEAT:  33.81231
 CYCLE:   203 TIME:   0.043 TIME LEFT:  2.00D  GRAD.:     2.438 HEAT:  33.79672
 CYCLE:   204 TIME:   0.043 TIME LEFT:  2.00D  GRAD.:     1.819 HEAT:  33.79296
 CYCLE:   205 TIME:   0.051 TIME LEFT:  2.00D  GRAD.:     3.570 HEAT:  33.78242
 CYCLE:   206 TIME:   0.047 TIME LEFT:  2.00D  GRAD.:     4.215 HEAT:  33.77465
 CYCLE:   207 TIME:   0.051 TIME LEFT:  2.00D  GRAD.:     3.916 HEAT:  33.76748
 CYCLE:   208 TIME:   0.051 TIME LEFT:  2.00D  GRAD.:     8.078 HEAT:  33.76951
 CYCLE:   209 TIME:   0.043 TIME LEFT:  2.00D  GRAD.:     4.150 HEAT:  33.74959
 CYCLE:   210 TIME:   0.047 TIME LEFT:  2.00D  GRAD.:     2.753 HEAT:  33.74351
 CYCLE:   211 TIME:   0.047 TIME LEFT:  2.00D  GRAD.:     2.573 HEAT:  33.73558
 CYCLE:   212 TIME:   0.047 TIME LEFT:  2.00D  GRAD.:     3.405 HEAT:  33.72332
 CYCLE:   213 TIME:   0.051 TIME LEFT:  2.00D  GRAD.:     5.894 HEAT:  33.71864
 CYCLE:   214 TIME:   0.047 TIME LEFT:  2.00D  GRAD.:    11.585 HEAT:  33.72104
 CYCLE:   215 TIME:   0.043 TIME LEFT:  2.00D  GRAD.:     2.923 HEAT:  33.69935
 CYCLE:   216 TIME:   0.047 TIME LEFT:  2.00D  GRAD.:     2.008 HEAT:  33.69375
 CYCLE:   217 TIME:   0.051 TIME LEFT:  2.00D  GRAD.:     4.241 HEAT:  33.69237
 CYCLE:   218 TIME:   0.047 TIME LEFT:  2.00D  GRAD.:     6.046 HEAT:  33.67353
 CYCLE:   219 TIME:   0.043 TIME LEFT:  2.00D  GRAD.:     3.825 HEAT:  33.66290
 CYCLE:   220 TIME:   0.043 TIME LEFT:  2.00D  GRAD.:     2.498 HEAT:  33.65518
 CYCLE:   221 TIME:   0.051 TIME LEFT:  2.00D  GRAD.:     7.373 HEAT:  33.66143
 CYCLE:   222 TIME:   0.059 TIME LEFT:  2.00D  GRAD.:     8.929 HEAT:  33.65797
 CYCLE:   223 TIME:   0.047 TIME LEFT:  2.00D  GRAD.:     4.285 HEAT:  33.64084
 CYCLE:   224 TIME:   0.047 TIME LEFT:  2.00D  GRAD.:     3.200 HEAT:  33.63786
 CYCLE:   225 TIME:   0.043 TIME LEFT:  2.00D  GRAD.:     3.502 HEAT:  33.62761
 CYCLE:   226 TIME:   0.047 TIME LEFT:  2.00D  GRAD.:     2.873 HEAT:  33.62188
 CYCLE:   227 TIME:   0.047 TIME LEFT:  2.00D  GRAD.:     3.134 HEAT:  33.61678
 CYCLE:   228 TIME:   0.047 TIME LEFT:  2.00D  GRAD.:     3.344 HEAT:  33.61246
 CYCLE:   229 TIME:   0.047 TIME LEFT:  2.00D  GRAD.:     4.812 HEAT:  33.60607
 CYCLE:   230 TIME:   0.047 TIME LEFT:  2.00D  GRAD.:     3.652 HEAT:  33.60034
 CYCLE:   231 TIME:   0.047 TIME LEFT:  2.00D  GRAD.:     2.839 HEAT:  33.59295
 CYCLE:   232 TIME:   0.047 TIME LEFT:  2.00D  GRAD.:     4.092 HEAT:  33.58345
 CYCLE:   233 TIME:   0.043 TIME LEFT:  2.00D  GRAD.:     3.716 HEAT:  33.57700
 CYCLE:   234 TIME:   0.047 TIME LEFT:  2.00D  GRAD.:     5.512 HEAT:  33.57713
 CYCLE:   235 TIME:   0.047 TIME LEFT:  2.00D  GRAD.:    11.081 HEAT:  33.58516
 CYCLE:   236 TIME:   0.047 TIME LEFT:  2.00D  GRAD.:     3.589 HEAT:  33.56423
 CYCLE:   237 TIME:   0.047 TIME LEFT:  2.00D  GRAD.:     2.153 HEAT:  33.55904
 CYCLE:   238 TIME:   0.051 TIME LEFT:  2.00D  GRAD.:     1.867 HEAT:  33.55471
 CYCLE:   239 TIME:   0.051 TIME LEFT:  2.00D  GRAD.:     3.471 HEAT:  33.55020
 CYCLE:   240 TIME:   0.051 TIME LEFT:  2.00D  GRAD.:    44.893 HEAT:  33.93189
 CYCLE:   241 TIME:   0.051 TIME LEFT:  2.00D  GRAD.:    58.758 HEAT:  34.38194
 CYCLE:   242 TIME:   0.047 TIME LEFT:  2.00D  GRAD.:    47.191 HEAT:  34.08255
 CYCLE:   243 TIME:   0.051 TIME LEFT:  2.00D  GRAD.:    10.704 HEAT:  33.56181
 CYCLE:   244 TIME:   0.051 TIME LEFT:  2.00D  GRAD.:    35.247 HEAT:  33.76260
 CYCLE:   245 TIME:   0.051 TIME LEFT:  2.00D  GRAD.:    81.532 HEAT:  34.90074
 CYCLE:   246 TIME:   0.051 TIME LEFT:  2.00D  GRAD.:    27.135 HEAT:  33.77845
 CYCLE:   247 TIME:   0.051 TIME LEFT:  2.00D  GRAD.:    12.011 HEAT:  33.55531
 CYCLE:   248 TIME:   0.055 TIME LEFT:  2.00D  GRAD.:    38.563 HEAT:  33.99005
 CYCLE:   249 TIME:   0.051 TIME LEFT:  2.00D  GRAD.:    28.607 HEAT:  33.68681
 CYCLE:   250 TIME:   0.059 TIME LEFT:  2.00D  GRAD.:   223.036 HEAT:  45.14155
 CYCLE:   251 TIME:   0.059 TIME LEFT:  2.00D  GRAD.:   128.656 HEAT:  36.71075
 CYCLE:   252 TIME:   0.051 TIME LEFT:  2.00D  GRAD.:    49.525 HEAT:  34.10293
 CYCLE:   253 TIME:   0.051 TIME LEFT:  2.00D  GRAD.:    67.443 HEAT:  34.87495
 CYCLE:   254 TIME:   0.055 TIME LEFT:  2.00D  GRAD.:    40.689 HEAT:  33.90894
 CYCLE:   255 TIME:   0.051 TIME LEFT:  2.00D  GRAD.:    58.135 HEAT:  34.26332
 CYCLE:   256 TIME:   0.051 TIME LEFT:  2.00D  GRAD.:    12.482 HEAT:  33.67534
 CYCLE:   257 TIME:   0.051 TIME LEFT:  2.00D  GRAD.:    17.023 HEAT:  33.71678
 CYCLE:   258 TIME:   0.051 TIME LEFT:  2.00D  GRAD.:    10.098 HEAT:  33.56884
 CYCLE:   259 TIME:   0.047 TIME LEFT:  2.00D  GRAD.:     9.944 HEAT:  33.54322
 CYCLE:   260 TIME:   0.051 TIME LEFT:  2.00D  GRAD.:     3.305 HEAT:  33.52062
 CYCLE:   261 TIME:   0.047 TIME LEFT:  2.00D  GRAD.:     2.824 HEAT:  33.51405
 CYCLE:   262 TIME:   0.047 TIME LEFT:  2.00D  GRAD.:     4.597 HEAT:  33.50347
 CYCLE:   263 TIME:   0.047 TIME LEFT:  2.00D  GRAD.:     4.786 HEAT:  33.50246
 CYCLE:   264 TIME:   0.047 TIME LEFT:  2.00D  GRAD.:     1.887 HEAT:  33.49397
 CYCLE:   265 TIME:   0.051 TIME LEFT:  2.00D  GRAD.:     2.882 HEAT:  33.49470
 CYCLE:   266 TIME:   0.047 TIME LEFT:  2.00D  GRAD.:     1.914 HEAT:  33.48831
 CYCLE:   267 TIME:   0.051 TIME LEFT:  2.00D  GRAD.:     3.279 HEAT:  33.49021
 CYCLE:   268 TIME:   0.047 TIME LEFT:  2.00D  GRAD.:     1.734 HEAT:  33.48439
 CYCLE:   269 TIME:   0.047 TIME LEFT:  2.00D  GRAD.:     1.134 HEAT:  33.48156
 CYCLE:   270 TIME:   0.047 TIME LEFT:  2.00D  GRAD.:     1.745 HEAT:  33.47860
 CYCLE:   271 TIME:   0.047 TIME LEFT:  2.00D  GRAD.:     2.158 HEAT:  33.47415
 CYCLE:   272 TIME:   0.051 TIME LEFT:  2.00D  GRAD.:     6.155 HEAT:  33.47974
 CYCLE:   273 TIME:   0.043 TIME LEFT:  2.00D  GRAD.:     2.486 HEAT:  33.46863
 CYCLE:   274 TIME:   0.047 TIME LEFT:  2.00D  GRAD.:     1.497 HEAT:  33.46702
 CYCLE:   275 TIME:   0.051 TIME LEFT:  2.00D  GRAD.:     1.760 HEAT:  33.46226
 CYCLE:   276 TIME:   0.051 TIME LEFT:  2.00D  GRAD.:     6.002 HEAT:  33.46013
 CYCLE:   277 TIME:   0.047 TIME LEFT:  2.00D  GRAD.:    11.377 HEAT:  33.47490
 CYCLE:   278 TIME:   0.047 TIME LEFT:  2.00D  GRAD.:     1.545 HEAT:  33.44863
 CYCLE:   279 TIME:   0.051 TIME LEFT:  2.00D  GRAD.:     3.456 HEAT:  33.44851
 CYCLE:   280 TIME:   0.043 TIME LEFT:  2.00D  GRAD.:     2.287 HEAT:  33.44167
 CYCLE:   281 TIME:   0.047 TIME LEFT:  2.00D  GRAD.:     2.129 HEAT:  33.43687
 CYCLE:   282 TIME:   0.047 TIME LEFT:  2.00D  GRAD.:     2.157 HEAT:  33.43252
 CYCLE:   283 TIME:   0.051 TIME LEFT:  2.00D  GRAD.:     3.142 HEAT:  33.42699
 CYCLE:   284 TIME:   0.047 TIME LEFT:  2.00D  GRAD.:     8.663 HEAT:  33.43192
 CYCLE:   285 TIME:   0.047 TIME LEFT:  2.00D  GRAD.:     1.788 HEAT:  33.41790
 CYCLE:   286 TIME:   0.051 TIME LEFT:  2.00D  GRAD.:     1.574 HEAT:  33.41580
 CYCLE:   287 TIME:   0.051 TIME LEFT:  2.00D  GRAD.:     2.136 HEAT:  33.40939
 CYCLE:   288 TIME:   0.051 TIME LEFT:  2.00D  GRAD.:     4.094 HEAT:  33.40406
 CYCLE:   289 TIME:   0.043 TIME LEFT:  2.00D  GRAD.:     2.224 HEAT:  33.39902
 CYCLE:   290 TIME:   0.047 TIME LEFT:  2.00D  GRAD.:     1.720 HEAT:  33.39727
 CYCLE:   291 TIME:   0.055 TIME LEFT:  2.00D  GRAD.:     2.052 HEAT:  33.39445
 CYCLE:   292 TIME:   0.047 TIME LEFT:  2.00D  GRAD.:     3.020 HEAT:  33.39179
 CYCLE:   293 TIME:   0.043 TIME LEFT:  2.00D  GRAD.:     1.921 HEAT:  33.38903
 CYCLE:   294 TIME:   0.047 TIME LEFT:  2.00D  GRAD.:     2.112 HEAT:  33.38541
 CYCLE:   295 TIME:   0.051 TIME LEFT:  2.00D  GRAD.:     2.297 HEAT:  33.38351
 CYCLE:   296 TIME:   0.051 TIME LEFT:  2.00D  GRAD.:     3.298 HEAT:  33.38070
 CYCLE:   297 TIME:   0.043 TIME LEFT:  2.00D  GRAD.:     2.897 HEAT:  33.37653
 CYCLE:   298 TIME:   0.043 TIME LEFT:  2.00D  GRAD.:     1.784 HEAT:  33.37384
 CYCLE:   299 TIME:   0.051 TIME LEFT:  2.00D  GRAD.:     2.122 HEAT:  33.37228
 CYCLE:   300 TIME:   0.051 TIME LEFT:  2.00D  GRAD.:     3.245 HEAT:  33.36931
 CYCLE:   301 TIME:   0.043 TIME LEFT:  2.00D  GRAD.:     1.903 HEAT:  33.36551
 CYCLE:   302 TIME:   0.047 TIME LEFT:  2.00D  GRAD.:     2.100 HEAT:  33.36142
 CYCLE:   303 TIME:   0.047 TIME LEFT:  2.00D  GRAD.:     3.031 HEAT:  33.35825
 CYCLE:   304 TIME:   0.047 TIME LEFT:  2.00D  GRAD.:     3.570 HEAT:  33.35413
 CYCLE:   305 TIME:   0.047 TIME LEFT:  2.00D  GRAD.:     3.472 HEAT:  33.35140
 CYCLE:   306 TIME:   0.047 TIME LEFT:  2.00D  GRAD.:     3.571 HEAT:  33.34608
 CYCLE:   307 TIME:   0.043 TIME LEFT:  2.00D  GRAD.:     2.525 HEAT:  33.34054
 CYCLE:   308 TIME:   0.047 TIME LEFT:  2.00D  GRAD.:     2.410 HEAT:  33.33688
 CYCLE:   309 TIME:   0.051 TIME LEFT:  2.00D  GRAD.:     5.609 HEAT:  33.33699
 CYCLE:   310 TIME:   0.047 TIME LEFT:  2.00D  GRAD.:     2.535 HEAT:  33.32842
 CYCLE:   311 TIME:   0.047 TIME LEFT:  2.00D  GRAD.:     2.062 HEAT:  33.32570
 CYCLE:   312 TIME:   0.059 TIME LEFT:  2.00D  GRAD.:     1.912 HEAT:  33.32248
 CYCLE:   313 TIME:   0.059 TIME LEFT:  2.00D  GRAD.:     5.055 HEAT:  33.31795
 CYCLE:   314 TIME:   0.047 TIME LEFT:  2.00D  GRAD.:     3.301 HEAT:  33.30777
 CYCLE:   315 TIME:   0.043 TIME LEFT:  2.00D  GRAD.:     2.364 HEAT:  33.30291
 CYCLE:   316 TIME:   0.051 TIME LEFT:  2.00D  GRAD.:     4.141 HEAT:  33.29873
 CYCLE:   317 TIME:   0.043 TIME LEFT:  2.00D  GRAD.:     3.226 HEAT:  33.29365
 CYCLE:   318 TIME:   0.043 TIME LEFT:  2.00D  GRAD.:     2.228 HEAT:  33.28930
 CYCLE:   319 TIME:   0.055 TIME LEFT:  2.00D  GRAD.:     2.899 HEAT:  33.28959
 CYCLE:   320 TIME:   0.047 TIME LEFT:  2.00D  GRAD.:     3.619 HEAT:  33.28191
 CYCLE:   321 TIME:   0.047 TIME LEFT:  2.00D  GRAD.:     2.994 HEAT:  33.27830
 CYCLE:   322 TIME:   0.043 TIME LEFT:  2.00D  GRAD.:     1.683 HEAT:  33.27487
 CYCLE:   323 TIME:   0.051 TIME LEFT:  2.00D  GRAD.:     4.145 HEAT:  33.27186
 CYCLE:   324 TIME:   0.043 TIME LEFT:  2.00D  GRAD.:     1.828 HEAT:  33.26644
 CYCLE:   325 TIME:   0.051 TIME LEFT:  2.00D  GRAD.:     2.294 HEAT:  33.26420
 CYCLE:   326 TIME:   0.051 TIME LEFT:  2.00D  GRAD.:     1.456 HEAT:  33.26082
 CYCLE:   327 TIME:   0.051 TIME LEFT:  2.00D  GRAD.:     2.298 HEAT:  33.25705
 CYCLE:   328 TIME:   0.043 TIME LEFT:  2.00D  GRAD.:     3.587 HEAT:  33.25438
 CYCLE:   329 TIME:   0.043 TIME LEFT:  2.00D  GRAD.:     2.639 HEAT:  33.25104
 CYCLE:   330 TIME:   0.047 TIME LEFT:  2.00D  GRAD.:     1.826 HEAT:  33.24731
 CYCLE:   331 TIME:   0.047 TIME LEFT:  2.00D  GRAD.:     2.959 HEAT:  33.24585
 CYCLE:   332 TIME:   0.047 TIME LEFT:  2.00D  GRAD.:     2.644 HEAT:  33.24134
 CYCLE:   333 TIME:   0.043 TIME LEFT:  2.00D  GRAD.:     3.183 HEAT:  33.23424
 CYCLE:   334 TIME:   0.047 TIME LEFT:  2.00D  GRAD.:     3.418 HEAT:  33.22872
 CYCLE:   335 TIME:   0.051 TIME LEFT:  2.00D  GRAD.:     3.258 HEAT:  33.22693
 CYCLE:   336 TIME:   0.051 TIME LEFT:  2.00D  GRAD.:     7.563 HEAT:  33.23305
 CYCLE:   337 TIME:   0.043 TIME LEFT:  2.00D  GRAD.:     2.329 HEAT:  33.22269
 CYCLE:   338 TIME:   0.051 TIME LEFT:  2.00D  GRAD.:     2.613 HEAT:  33.21705
 CYCLE:   339 TIME:   0.047 TIME LEFT:  2.00D  GRAD.:     8.255 HEAT:  33.22516
 CYCLE:   340 TIME:   0.043 TIME LEFT:  2.00D  GRAD.:     2.007 HEAT:  33.21353
 CYCLE:   341 TIME:   0.047 TIME LEFT:  2.00D  GRAD.:     1.207 HEAT:  33.21121
 CYCLE:   342 TIME:   0.055 TIME LEFT:  2.00D  GRAD.:     1.970 HEAT:  33.20987
 CYCLE:   343 TIME:   0.047 TIME LEFT:  2.00D  GRAD.:     1.970 HEAT:  33.20566
 CYCLE:   344 TIME:   0.051 TIME LEFT:  2.00D  GRAD.:     2.900 HEAT:  33.20459
 CYCLE:   345 TIME:   0.043 TIME LEFT:  2.00D  GRAD.:     3.281 HEAT:  33.19812
 CYCLE:   346 TIME:   0.047 TIME LEFT:  2.00D  GRAD.:     2.055 HEAT:  33.19103
 CYCLE:   347 TIME:   0.047 TIME LEFT:  2.00D  GRAD.:     2.780 HEAT:  33.18339
 CYCLE:   348 TIME:   0.051 TIME LEFT:  2.00D  GRAD.:     3.735 HEAT:  33.17406
 CYCLE:   349 TIME:   0.047 TIME LEFT:  2.00D  GRAD.:     3.324 HEAT:  33.16459
 CYCLE:   350 TIME:   0.047 TIME LEFT:  2.00D  GRAD.:     3.905 HEAT:  33.16371
 CYCLE:   351 TIME:   0.047 TIME LEFT:  2.00D  GRAD.:     7.695 HEAT:  33.17157
 CYCLE:   352 TIME:   0.047 TIME LEFT:  2.00D  GRAD.:     3.426 HEAT:  33.14652
 CYCLE:   353 TIME:   0.055 TIME LEFT:  2.00D  GRAD.:     3.244 HEAT:  33.14920
 CYCLE:   354 TIME:   0.051 TIME LEFT:  2.00D  GRAD.:    19.871 HEAT:  33.21127
 CYCLE:   355 TIME:   0.043 TIME LEFT:  2.00D  GRAD.:     3.496 HEAT:  33.12506
 CYCLE:   356 TIME:   0.043 TIME LEFT:  2.00D  GRAD.:     1.943 HEAT:  33.11852
 CYCLE:   357 TIME:   0.051 TIME LEFT:  2.00D  GRAD.:     3.844 HEAT:  33.10696
 CYCLE:   358 TIME:   0.047 TIME LEFT:  2.00D  GRAD.:     4.119 HEAT:  33.09857
 CYCLE:   359 TIME:   0.047 TIME LEFT:  2.00D  GRAD.:     3.177 HEAT:  33.08915
 CYCLE:   360 TIME:   0.047 TIME LEFT:  2.00D  GRAD.:     3.329 HEAT:  33.08162
 CYCLE:   361 TIME:   0.047 TIME LEFT:  2.00D  GRAD.:     4.794 HEAT:  33.07614
 CYCLE:   362 TIME:   0.043 TIME LEFT:  2.00D  GRAD.:     3.507 HEAT:  33.06753
 CYCLE:   363 TIME:   0.047 TIME LEFT:  2.00D  GRAD.:     2.846 HEAT:  33.06039
 CYCLE:   364 TIME:   0.043 TIME LEFT:  2.00D  GRAD.:     3.424 HEAT:  33.05030
 CYCLE:   365 TIME:   0.047 TIME LEFT:  2.00D  GRAD.:     4.725 HEAT:  33.04363
 CYCLE:   366 TIME:   0.051 TIME LEFT:  2.00D  GRAD.:     5.385 HEAT:  33.04128
 CYCLE:   367 TIME:   0.043 TIME LEFT:  2.00D  GRAD.:     3.247 HEAT:  33.02795
 CYCLE:   368 TIME:   0.051 TIME LEFT:  2.00D  GRAD.:     3.104 HEAT:  33.02052
 CYCLE:   369 TIME:   0.051 TIME LEFT:  2.00D  GRAD.:     4.173 HEAT:  33.01582
 CYCLE:   370 TIME:   0.043 TIME LEFT:  2.00D  GRAD.:     2.392 HEAT:  33.00980
 CYCLE:   371 TIME:   0.051 TIME LEFT:  2.00D  GRAD.:     4.593 HEAT:  33.01251
 CYCLE:   372 TIME:   0.047 TIME LEFT:  2.00D  GRAD.:     4.394 HEAT:  32.99951
 CYCLE:   373 TIME:   0.047 TIME LEFT:  2.00D  GRAD.:     3.033 HEAT:  32.99248
 CYCLE:   374 TIME:   0.047 TIME LEFT:  2.00D  GRAD.:     2.649 HEAT:  32.99002
 CYCLE:   375 TIME:   0.043 TIME LEFT:  2.00D  GRAD.:     2.543 HEAT:  32.98066
 CYCLE:   376 TIME:   0.055 TIME LEFT:  2.00D  GRAD.:     6.332 HEAT:  32.96485
 CYCLE:   377 TIME:   0.043 TIME LEFT:  2.00D  GRAD.:     4.111 HEAT:  32.95187
 CYCLE:   378 TIME:   0.047 TIME LEFT:  2.00D  GRAD.:     3.405 HEAT:  32.93831
 CYCLE:   379 TIME:   0.047 TIME LEFT:  2.00D  GRAD.:     3.171 HEAT:  32.93179
 CYCLE:   380 TIME:   0.047 TIME LEFT:  2.00D  GRAD.:     3.091 HEAT:  32.92154
 CYCLE:   381 TIME:   0.047 TIME LEFT:  2.00D  GRAD.:     4.524 HEAT:  32.91780
 CYCLE:   382 TIME:   0.043 TIME LEFT:  2.00D  GRAD.:     2.529 HEAT:  32.91117
 CYCLE:   383 TIME:   0.051 TIME LEFT:  2.00D  GRAD.:     2.986 HEAT:  32.90643
 CYCLE:   384 TIME:   0.051 TIME LEFT:  2.00D  GRAD.:     3.530 HEAT:  32.90088
 CYCLE:   385 TIME:   0.043 TIME LEFT:  2.00D  GRAD.:     2.601 HEAT:  32.89438
 CYCLE:   386 TIME:   0.047 TIME LEFT:  2.00D  GRAD.:     2.383 HEAT:  32.88918
 CYCLE:   387 TIME:   0.051 TIME LEFT:  2.00D  GRAD.:     2.896 HEAT:  32.88410
 CYCLE:   388 TIME:   0.051 TIME LEFT:  2.00D  GRAD.:     4.696 HEAT:  32.87974
 CYCLE:   389 TIME:   0.254 TIME LEFT:  2.00D  GRAD.:     2.174 HEAT:  32.87359
 CYCLE:   390 TIME:   0.051 TIME LEFT:  2.00D  GRAD.:     2.167 HEAT:  32.86879
 CYCLE:   391 TIME:   0.047 TIME LEFT:  2.00D  GRAD.:     2.465 HEAT:  32.86398
 CYCLE:   392 TIME:   0.051 TIME LEFT:  2.00D  GRAD.:     5.145 HEAT:  32.85675
 CYCLE:   393 TIME:   0.043 TIME LEFT:  2.00D  GRAD.:     3.312 HEAT:  32.84864
 CYCLE:   394 TIME:   0.051 TIME LEFT:  2.00D  GRAD.:     2.154 HEAT:  32.84480
 CYCLE:   395 TIME:   0.043 TIME LEFT:  2.00D  GRAD.:     1.849 HEAT:  32.83951
 CYCLE:   396 TIME:   0.047 TIME LEFT:  2.00D  GRAD.:     3.081 HEAT:  32.83548
 CYCLE:   397 TIME:   0.051 TIME LEFT:  2.00D  GRAD.:     2.308 HEAT:  32.83148
 CYCLE:   398 TIME:   0.051 TIME LEFT:  2.00D  GRAD.:     2.510 HEAT:  32.82715
 CYCLE:   399 TIME:   0.043 TIME LEFT:  2.00D  GRAD.:     2.963 HEAT:  32.82279
 CYCLE:   400 TIME:   0.047 TIME LEFT:  2.00D  GRAD.:     2.256 HEAT:  32.81888
 CYCLE:   401 TIME:   0.047 TIME LEFT:  2.00D  GRAD.:     2.292 HEAT:  32.81250
 CYCLE:   402 TIME:   0.047 TIME LEFT:  2.00D  GRAD.:     4.115 HEAT:  32.80645
 CYCLE:   403 TIME:   0.047 TIME LEFT:  2.00D  GRAD.:     2.947 HEAT:  32.79974
 CYCLE:   404 TIME:   0.047 TIME LEFT:  2.00D  GRAD.:     2.595 HEAT:  32.79171
 CYCLE:   405 TIME:   0.051 TIME LEFT:  2.00D  GRAD.:     4.180 HEAT:  32.78305
 CYCLE:   406 TIME:   0.043 TIME LEFT:  2.00D  GRAD.:     3.344 HEAT:  32.77494
 CYCLE:   407 TIME:   0.047 TIME LEFT:  2.00D  GRAD.:     4.120 HEAT:  32.77065
 CYCLE:   408 TIME:   0.047 TIME LEFT:  2.00D  GRAD.:     8.680 HEAT:  32.76977
 CYCLE:   409 TIME:   0.047 TIME LEFT:  2.00D  GRAD.:     3.338 HEAT:  32.75380
 CYCLE:   410 TIME:   0.047 TIME LEFT:  2.00D  GRAD.:     2.954 HEAT:  32.74883
 CYCLE:   411 TIME:   0.047 TIME LEFT:  2.00D  GRAD.:     3.898 HEAT:  32.73940
 CYCLE:   412 TIME:   0.043 TIME LEFT:  2.00D  GRAD.:     4.436 HEAT:  32.73130
 CYCLE:   413 TIME:   0.043 TIME LEFT:  2.00D  GRAD.:     2.846 HEAT:  32.72251
 CYCLE:   414 TIME:   0.059 TIME LEFT:  2.00D  GRAD.:     3.253 HEAT:  32.71996
 CYCLE:   415 TIME:   0.047 TIME LEFT:  2.00D  GRAD.:     4.791 HEAT:  32.71081
 CYCLE:   416 TIME:   0.047 TIME LEFT:  2.00D  GRAD.:     3.066 HEAT:  32.70581
 CYCLE:   417 TIME:   0.043 TIME LEFT:  2.00D  GRAD.:     1.897 HEAT:  32.70272
 CYCLE:   418 TIME:   0.051 TIME LEFT:  2.00D  GRAD.:     7.155 HEAT:  32.70499
 CYCLE:   419 TIME:   0.051 TIME LEFT:  2.00D  GRAD.:     2.143 HEAT:  32.69688
 CYCLE:   420 TIME:   0.047 TIME LEFT:  2.00D  GRAD.:     1.423 HEAT:  32.69223
 CYCLE:   421 TIME:   0.051 TIME LEFT:  2.00D  GRAD.:     7.451 HEAT:  32.69787
 CYCLE:   422 TIME:   0.047 TIME LEFT:  2.00D  GRAD.:     2.099 HEAT:  32.68488
 CYCLE:   423 TIME:   0.047 TIME LEFT:  2.00D  GRAD.:     1.422 HEAT:  32.68265
 CYCLE:   424 TIME:   0.047 TIME LEFT:  2.00D  GRAD.:     2.175 HEAT:  32.67657
 CYCLE:   425 TIME:   0.047 TIME LEFT:  2.00D  GRAD.:     3.171 HEAT:  32.67159
 CYCLE:   426 TIME:   0.047 TIME LEFT:  2.00D  GRAD.:     2.618 HEAT:  32.66471
 CYCLE:   427 TIME:   0.047 TIME LEFT:  2.00D  GRAD.:     3.241 HEAT:  32.65953
 CYCLE:   428 TIME:   0.051 TIME LEFT:  2.00D  GRAD.:     3.876 HEAT:  32.65399
 CYCLE:   429 TIME:   0.043 TIME LEFT:  2.00D  GRAD.:     3.146 HEAT:  32.64750
 CYCLE:   430 TIME:   0.047 TIME LEFT:  2.00D  GRAD.:     2.136 HEAT:  32.64207
 CYCLE:   431 TIME:   0.047 TIME LEFT:  2.00D  GRAD.:     2.537 HEAT:  32.63613
 CYCLE:   432 TIME:   0.051 TIME LEFT:  2.00D  GRAD.:     6.025 HEAT:  32.62964
 CYCLE:   433 TIME:   0.047 TIME LEFT:  2.00D  GRAD.:     8.948 HEAT:  32.64085
 CYCLE:   434 TIME:   0.043 TIME LEFT:  2.00D  GRAD.:     2.116 HEAT:  32.61925
 CYCLE:   435 TIME:   0.055 TIME LEFT:  2.00D  GRAD.:     3.189 HEAT:  32.61574
 CYCLE:   436 TIME:   0.043 TIME LEFT:  2.00D  GRAD.:     2.315 HEAT:  32.61022
 CYCLE:   437 TIME:   0.051 TIME LEFT:  2.00D  GRAD.:     2.797 HEAT:  32.60087
 CYCLE:   438 TIME:   0.047 TIME LEFT:  2.00D  GRAD.:     4.141 HEAT:  32.59780
 CYCLE:   439 TIME:   0.043 TIME LEFT:  2.00D  GRAD.:     2.479 HEAT:  32.59270
 CYCLE:   440 TIME:   0.051 TIME LEFT:  2.00D  GRAD.:     2.249 HEAT:  32.58677
 CYCLE:   441 TIME:   0.047 TIME LEFT:  2.00D  GRAD.:     2.715 HEAT:  32.58289
 CYCLE:   442 TIME:   0.062 TIME LEFT:  2.00D  GRAD.:     3.255 HEAT:  32.57669
 CYCLE:   443 TIME:   0.047 TIME LEFT:  2.00D  GRAD.:     3.967 HEAT:  32.57210
 CYCLE:   444 TIME:   0.043 TIME LEFT:  2.00D  GRAD.:     1.885 HEAT:  32.56825
 CYCLE:   445 TIME:   0.043 TIME LEFT:  2.00D  GRAD.:     1.498 HEAT:  32.56574
 CYCLE:   446 TIME:   0.047 TIME LEFT:  2.00D  GRAD.:     1.973 HEAT:  32.56285
 CYCLE:   447 TIME:   0.051 TIME LEFT:  2.00D  GRAD.:     3.255 HEAT:  32.56007
 CYCLE:   448 TIME:   0.047 TIME LEFT:  2.00D  GRAD.:     5.493 HEAT:  32.55866
 CYCLE:   449 TIME:   0.043 TIME LEFT:  2.00D  GRAD.:     2.031 HEAT:  32.55294
 CYCLE:   450 TIME:   0.043 TIME LEFT:  2.00D  GRAD.:     1.528 HEAT:  32.55003
 CYCLE:   451 TIME:   0.055 TIME LEFT:  2.00D  GRAD.:     3.225 HEAT:  32.54720
 CYCLE:   452 TIME:   0.043 TIME LEFT:  2.00D  GRAD.:     2.510 HEAT:  32.54147
 CYCLE:   453 TIME:   0.047 TIME LEFT:  2.00D  GRAD.:     3.794 HEAT:  32.53756
 CYCLE:   454 TIME:   0.043 TIME LEFT:  2.00D  GRAD.:     2.008 HEAT:  32.53224
 CYCLE:   455 TIME:   0.051 TIME LEFT:  2.00D  GRAD.:     3.812 HEAT:  32.52926
 CYCLE:   456 TIME:   0.047 TIME LEFT:  2.00D  GRAD.:     2.976 HEAT:  32.52420
 CYCLE:   457 TIME:   0.043 TIME LEFT:  2.00D  GRAD.:     2.207 HEAT:  32.51874
 CYCLE:   458 TIME:   0.055 TIME LEFT:  2.00D  GRAD.:     2.818 HEAT:  32.51370
 CYCLE:   459 TIME:   0.043 TIME LEFT:  2.00D  GRAD.:     3.360 HEAT:  32.50902
 CYCLE:   460 TIME:   0.043 TIME LEFT:  2.00D  GRAD.:     1.961 HEAT:  32.50455
 CYCLE:   461 TIME:   0.051 TIME LEFT:  2.00D  GRAD.:     3.371 HEAT:  32.50036
 CYCLE:   462 TIME:   0.047 TIME LEFT:  2.00D  GRAD.:     2.918 HEAT:  32.49623
 CYCLE:   463 TIME:   0.043 TIME LEFT:  2.00D  GRAD.:     1.662 HEAT:  32.49142
 CYCLE:   464 TIME:   0.047 TIME LEFT:  2.00D  GRAD.:     2.220 HEAT:  32.48626
 CYCLE:   465 TIME:   0.051 TIME LEFT:  2.00D  GRAD.:     3.231 HEAT:  32.48100
 CYCLE:   466 TIME:   0.070 TIME LEFT:  2.00D  GRAD.:    14.592 HEAT:  32.50796
 CYCLE:   467 TIME:   0.043 TIME LEFT:  2.00D  GRAD.:     2.592 HEAT:  32.47295
 CYCLE:   468 TIME:   0.043 TIME LEFT:  2.00D  GRAD.:     1.601 HEAT:  32.47042
 CYCLE:   469 TIME:   0.051 TIME LEFT:  2.00D  GRAD.:     3.897 HEAT:  32.46815
 CYCLE:   470 TIME:   0.047 TIME LEFT:  2.00D  GRAD.:     1.808 HEAT:  32.46275
 CYCLE:   471 TIME:   0.051 TIME LEFT:  2.00D  GRAD.:     1.780 HEAT:  32.46273
 CYCLE:   472 TIME:   0.047 TIME LEFT:  2.00D  GRAD.:     1.884 HEAT:  32.45788
 CYCLE:   473 TIME:   0.051 TIME LEFT:  2.00D  GRAD.:     2.205 HEAT:  32.45129
 CYCLE:   474 TIME:   0.047 TIME LEFT:  2.00D  GRAD.:     5.264 HEAT:  32.44983
 CYCLE:   475 TIME:   0.043 TIME LEFT:  2.00D  GRAD.:     2.584 HEAT:  32.44425
 CYCLE:   476 TIME:   0.047 TIME LEFT:  2.00D  GRAD.:     1.818 HEAT:  32.44024
 CYCLE:   477 TIME:   0.051 TIME LEFT:  2.00D  GRAD.:     1.970 HEAT:  32.43756
 CYCLE:   478 TIME:   0.047 TIME LEFT:  2.00D  GRAD.:     3.839 HEAT:  32.43082
 CYCLE:   479 TIME:   0.043 TIME LEFT:  2.00D  GRAD.:     3.409 HEAT:  32.42513
 CYCLE:   480 TIME:   0.051 TIME LEFT:  2.00D  GRAD.:     2.813 HEAT:  32.42053
 CYCLE:   481 TIME:   0.047 TIME LEFT:  2.00D  GRAD.:     2.466 HEAT:  32.41459
 CYCLE:   482 TIME:   0.047 TIME LEFT:  2.00D  GRAD.:     3.240 HEAT:  32.41024
 CYCLE:   483 TIME:   0.043 TIME LEFT:  2.00D  GRAD.:     2.444 HEAT:  32.40547
 CYCLE:   484 TIME:   0.062 TIME LEFT:  2.00D  GRAD.:     1.862 HEAT:  32.40177
 CYCLE:   485 TIME:   0.051 TIME LEFT:  2.00D  GRAD.:     2.147 HEAT:  32.39992
 CYCLE:   486 TIME:   0.047 TIME LEFT:  2.00D  GRAD.:     4.072 HEAT:  32.39546
 CYCLE:   487 TIME:   0.047 TIME LEFT:  2.00D  GRAD.:     2.780 HEAT:  32.39132
 CYCLE:   488 TIME:   0.047 TIME LEFT:  2.00D  GRAD.:     2.698 HEAT:  32.39017
 CYCLE:   489 TIME:   0.043 TIME LEFT:  2.00D  GRAD.:     2.661 HEAT:  32.38524
 CYCLE:   490 TIME:   0.051 TIME LEFT:  2.00D  GRAD.:     2.708 HEAT:  32.38069
 CYCLE:   491 TIME:   0.047 TIME LEFT:  2.00D  GRAD.:     3.079 HEAT:  32.37789
 CYCLE:   492 TIME:   0.043 TIME LEFT:  2.00D  GRAD.:     2.258 HEAT:  32.37430
 CYCLE:   493 TIME:   0.047 TIME LEFT:  2.00D  GRAD.:     2.421 HEAT:  32.37032
 CYCLE:   494 TIME:   0.051 TIME LEFT:  2.00D  GRAD.:     3.000 HEAT:  32.36697
 CYCLE:   495 TIME:   0.047 TIME LEFT:  2.00D  GRAD.:     4.236 HEAT:  32.36303
 CYCLE:   496 TIME:   0.043 TIME LEFT:  2.00D  GRAD.:     3.146 HEAT:  32.35719
 CYCLE:   497 TIME:   0.043 TIME LEFT:  2.00D  GRAD.:     2.161 HEAT:  32.35204
 CYCLE:   498 TIME:   0.047 TIME LEFT:  2.00D  GRAD.:     2.083 HEAT:  32.34767
 CYCLE:   499 TIME:   0.047 TIME LEFT:  2.00D  GRAD.:     2.718 HEAT:  32.34365
 CYCLE:   500 TIME:   0.062 TIME LEFT:  2.00D  GRAD.:     2.260 HEAT:  32.34302
 CYCLE:   501 TIME:   0.047 TIME LEFT:  2.00D  GRAD.:     2.233 HEAT:  32.34114
 CYCLE:   502 TIME:   0.047 TIME LEFT:  2.00D  GRAD.:     2.358 HEAT:  32.33869
 CYCLE:   503 TIME:   0.051 TIME LEFT:  2.00D  GRAD.:     2.031 HEAT:  32.33800
 CYCLE:   504 TIME:   0.055 TIME LEFT:  2.00D  GRAD.:     6.207 HEAT:  32.34154
 CYCLE:   505 TIME:   0.043 TIME LEFT:  2.00D  GRAD.:     1.144 HEAT:  32.33327
 CYCLE:   506 TIME:   0.047 TIME LEFT:  2.00D  GRAD.:     0.797 HEAT:  32.33287

 -------------------------------------------------------------------------------
 PM7 XYZ

 Lipophilicity_113 - geometry optimisation


     HERBERTS TEST WAS SATISFIED IN BFGS                      
     SCF FIELD WAS ACHIEVED                                   


                              PM7 CALCULATION
                                                       MOPAC v23.0.3 Linux
                                                       Fri Jul 25 16:18:19 2025




          FINAL HEAT OF FORMATION =         32.33287 KCAL/MOL =     135.28071 KJ/MOL


          COSMO AREA              =        470.62 SQUARE ANGSTROMS
          COSMO VOLUME            =        518.24 CUBIC ANGSTROMS

          GRADIENT NORM           =          0.79716          =       0.10559 PER ATOM
          IONIZATION POTENTIAL    =          8.824305 EV
          HOMO LUMO ENERGIES (EV) =         -8.824 -0.173
          NO. OF FILLED LEVELS    =         83
          MOLECULAR WEIGHT        =        435.4846         POINT GROUP:  C1  

          MOLECULAR DIMENSIONS (Angstroms)

            Atom       Atom       Distance
            H    50    H    35    19.14609
            H    55    H    47    10.47880
            H    44    H    33     5.06339


          SCF CALCULATIONS        =        507

          WALL-CLOCK TIME         =     24.371 SECONDS
          COMPUTATION TIME        =          8 MINUTES AND 5.903 SECONDS




   ATOM   CHEMICAL          X               Y               Z
  NUMBER   SYMBOL      (ANGSTROMS)     (ANGSTROMS)     (ANGSTROMS)

     1       C         -7.77646194  *  -1.97133071  *   2.14568120  *
     2       O         -7.96871488  *  -0.73836880  *   1.46547924  *
     3       C         -6.89215322  *  -0.18810703  *   0.84934800  *
     4       C         -5.60890920  *  -0.72960540  *   0.82928211  *
     5       C         -4.59916102  *  -0.03610490  *   0.14901458  *
     6       C         -3.21457449  *  -0.60980571  *   0.11375953  *
     7       C         -2.47571987  *  -0.27116412  *   1.42246672  *
     8       C         -1.18557972  *  -0.98945817  *   1.45985948  *
     9       C          0.07984837  *  -0.61052892  *   1.00209240  *
    10       C          0.91993508  *  -1.74199839  *   1.24592760  *
    11       N          2.29039558  *  -1.90290434  *   1.03913568  *
    12       C          2.92853186  *  -1.49247661  *  -0.11801223  *
    13       C          2.35047826  *  -0.71811773  *  -1.14896733  *
    14       C          3.19847820  *  -0.29971889  *  -2.17461605  *
    15       N          4.50075367  *  -0.62898592  *  -2.22967953  *
    16       C          4.97176148  *  -1.44498302  *  -1.23067588  *
    17       N          6.25556995  *  -1.95590527  *  -1.32073663  *
    18       C          7.23844953  *  -1.25157565  *  -2.15312964  *
    19       C          7.83344628  *  -0.10740596  *  -1.42348933  *
    20       O          9.12130645  *  -0.29769494  *  -0.95490818  *
    21       N          9.49330682  *   0.82951832  *  -0.26087489  *
    22       C          8.48384290  *   1.69786807  *  -0.28562470  *
    23       C          8.50572534  *   3.01578450  *   0.37385747  *
    24       C          7.38401286  *   1.12658178  *  -1.04214019  *
    25       N          4.23958706  *  -1.87364113  *  -0.16095657  *
    26       N          0.20029601  *  -2.74975463  *   1.83736978  *
    27       N         -1.06405858  *  -2.27394555  *   1.96607044  *
    28       C         -4.86444816  *   1.16739196  *  -0.48756662  *
    29       C         -6.17512713  *   1.68029578  *  -0.44995715  *
    30       O         -6.29604401  *   2.85591227  *  -1.11323645  *
    31       C         -7.59399902  *   3.43257061  *  -1.18691181  *
    32       C         -7.20590640  *   1.02209286  *   0.20931746  *
    33       H         -7.06906333  *  -1.85471518  *   2.97204272  *
    34       H         -7.45958683  *  -2.75642275  *   1.45240252  *
    35       H         -8.78459239  *  -2.18222362  *   2.52910314  *
    36       H         -5.38505036  *  -1.66807887  *   1.31696671  *
    37       H         -2.63881786  *  -0.22082847  *  -0.75277293  *
    38       H         -3.25317855  *  -1.70774882  *  -0.03854449  *
    39       H         -3.11365025  *  -0.51441321  *   2.29842838  *
    40       H         -2.31241147  *   0.82885417  *   1.48733715  *
    41       H          0.37093064  *   0.32898663  *   0.59014744  *
    42       H          2.76977543  *  -2.59770648  *   1.62273143  *
    43       H          1.29955412  *  -0.46920509  *  -1.15658378  *
    44       H          2.83897803  *   0.33152601  *  -2.99874887  *
    45       H          6.62260795  *  -2.40841517  *  -0.48431428  *
    46       H          6.74564963  *  -0.89338244  *  -3.10120692  *
    47       H          8.01434417  *  -1.99482633  *  -2.46717236  *
    48       H          7.77428985  *   3.05905941  *   1.19840372  *
    49       H          8.25654872  *   3.82500080  *  -0.33024468  *
    50       H          9.49366976  *   3.24976447  *   0.80532878  *
    51       H          6.44305625  *   1.59402054  *  -1.23826853  *
    52       H         -1.75557108  *  -2.86652998  *   2.37555146  *
    53       H         -4.09168130  *   1.71726848  *  -1.01491646  *
    54       H         -8.28626864  *   2.76782765  *  -1.71296474  *
    55       H         -7.41037924  *   4.34148112  *  -1.77556850  *
    56       H         -7.96546121  *   3.68893198  *  -0.19006773  *
    57       H         -8.21993078  *   1.39891489  *   0.24614340  *

                             CARTESIAN COORDINATES

   1    C       -7.776461936    -1.971330714     2.145681198
   2    O       -7.968714878    -0.738368803     1.465479236
   3    C       -6.892153218    -0.188107029     0.849348004
   4    C       -5.608909196    -0.729605403     0.829282111
   5    C       -4.599161020    -0.036104903     0.149014583
   6    C       -3.214574491    -0.609805709     0.113759528
   7    C       -2.475719872    -0.271164121     1.422466719
   8    C       -1.185579715    -0.989458167     1.459859479
   9    C        0.079848369    -0.610528916     1.002092399
  10    C        0.919935075    -1.741998393     1.245927601
  11    N        2.290395577    -1.902904341     1.039135680
  12    C        2.928531856    -1.492476605    -0.118012229
  13    C        2.350478259    -0.718117728    -1.148967332
  14    C        3.198478199    -0.299718886    -2.174616055
  15    N        4.500753668    -0.628985923    -2.229679529
  16    C        4.971761478    -1.444983021    -1.230675878
  17    N        6.255569946    -1.955905268    -1.320736634
  18    C        7.238449529    -1.251575646    -2.153129641
  19    C        7.833446282    -0.107405958    -1.423489334
  20    O        9.121306445    -0.297694939    -0.954908184
  21    N        9.493306817     0.829518317    -0.260874888
  22    C        8.483842902     1.697868068    -0.285624702
  23    C        8.505725342     3.015784505     0.373857467
  24    C        7.384012864     1.126581778    -1.042140190
  25    N        4.239587065    -1.873641125    -0.160956571
  26    N        0.200296008    -2.749754626     1.837369782
  27    N       -1.064058576    -2.273945553     1.966070436
  28    C       -4.864448160     1.167391958    -0.487566617
  29    C       -6.175127134     1.680295785    -0.449957146
  30    O       -6.296044014     2.855912273    -1.113236448
  31    C       -7.593999017     3.432570607    -1.186911809
  32    C       -7.205906397     1.022092856     0.209317465
  33    H       -7.069063332    -1.854715177     2.972042715
  34    H       -7.459586834    -2.756422746     1.452402517
  35    H       -8.784592388    -2.182223621     2.529103140
  36    H       -5.385050359    -1.668078872     1.316966709
  37    H       -2.638817862    -0.220828470    -0.752772935
  38    H       -3.253178545    -1.707748822    -0.038544489
  39    H       -3.113650249    -0.514413213     2.298428383
  40    H       -2.312411470     0.828854175     1.487337147
  41    H        0.370930644     0.328986627     0.590147439
  42    H        2.769775425    -2.597706484     1.622731428
  43    H        1.299554121    -0.469205093    -1.156583775
  44    H        2.838978032     0.331526007    -2.998748870
  45    H        6.622607954    -2.408415172    -0.484314282
  46    H        6.745649629    -0.893382435    -3.101206923
  47    H        8.014344170    -1.994826326    -2.467172362
  48    H        7.774289851     3.059059405     1.198403724
  49    H        8.256548719     3.825000803    -0.330244681
  50    H        9.493669755     3.249764469     0.805328781
  51    H        6.443056245     1.594020544    -1.238268532
  52    H       -1.755571081    -2.866529977     2.375551459
  53    H       -4.091681298     1.717268478    -1.014916457
  54    H       -8.286268635     2.767827649    -1.712964743
  55    H       -7.410379236     4.341481116    -1.775568503
  56    H       -7.965461215     3.688931980    -0.190067730
  57    H       -8.219930775     1.398914885     0.246143399


           Empirical Formula: C22 H25 N7 O3  =    57 atoms



      MOLECULAR POINT GROUP   :   C1  


                  EIGENVALUES  
 -40.38881 -38.14338 -37.26897 -35.77433 -35.56294 -33.72455 -31.26375 -30.88139
 -30.77884 -30.22455 -29.71327 -28.82359 -27.67926 -27.35176 -26.77878 -26.12764
 -25.95066 -25.53130 -24.81626 -24.62385 -24.46068 -23.30179 -22.87635 -22.44436
 -21.04776 -20.86142 -20.59964 -20.53595 -20.22691 -19.58550 -18.69794 -18.48257
 -18.35040 -17.72898 -17.18454 -17.13044 -16.78290 -16.61418 -16.51752 -16.38812
 -16.25844 -16.01962 -15.95699 -15.93831 -15.86738 -15.55099 -15.47674 -15.28351
 -15.11231 -14.96753 -14.84987 -14.74976 -14.50807 -14.33213 -14.20368 -14.08691
 -13.91878 -13.67404 -13.58508 -13.49094 -13.45045 -13.30147 -13.12520 -13.06359
 -12.86428 -12.49457 -12.37434 -12.29348 -12.01008 -11.98048 -11.74035 -11.67858
 -11.55316 -11.21278 -10.74224 -10.50281 -10.30206 -10.15954 -10.05809  -9.52125
  -9.33483  -9.06458  -8.82431  -0.17332  -0.10326   0.02837   0.12395   0.30623
   0.36763   0.90032   1.08405   1.18870   1.22216   1.50106   1.69731   1.74017
   2.14596   2.33967   2.35002   2.82365   2.95084   3.03515   3.32750   3.39212
   3.53638   3.62478   3.72752   3.74108   3.87684   3.91683   3.99393   4.03974
   4.06557   4.13547   4.36576   4.40930   4.59907   4.63071   4.72365   4.78144
   4.89097   4.91246   4.94531   5.01494   5.01740   5.07305   5.08726   5.17226
   5.19799   5.20527   5.26534   5.32874   5.33017   5.43463   5.53429   5.57082
   5.57322   5.63312   5.71574   5.73697   5.80095   5.82546   5.92906   5.99629
   6.01969   6.05760   6.14711   6.27659   6.34846   6.39120   6.42483   6.42499
   6.50578


              NET ATOMIC CHARGES AND DIPOLE CONTRIBUTIONS

  ATOM NO.   TYPE          CHARGE      No. of ELECS.   s-Pop       p-Pop       
    1          C          -0.201333        4.2013     1.08726     3.11407
    2          O          -0.314976        6.3150     1.86521     4.44977
    3          C           0.328605        3.6714     1.08699     2.58440
    4          C          -0.404493        4.4045     1.06662     3.33787
    5          C           0.145158        3.8548     1.07115     2.78369
    6          C          -0.283289        4.2833     1.05887     3.22442
    7          C          -0.269806        4.2698     1.05208     3.21772
    8          C           0.100067        3.8999     1.07583     2.82410
    9          C          -0.334647        4.3346     1.07637     3.25827
   10          C           0.240949        3.7591     1.04710     2.71195
   11          N          -0.445557        5.4456     1.52384     3.92172
   12          C           0.478285        3.5217     1.05109     2.47062
   13          C          -0.485462        4.4855     1.06807     3.41739
   14          C           0.200687        3.7993     1.09762     2.70169
   15          N          -0.550762        5.5508     1.76097     3.78980
   16          C           0.545843        3.4542     1.05250     2.40165
   17          N          -0.471620        5.4716     1.57065     3.90097
   18          C          -0.080344        4.0803     1.06020     3.02014
   19          C           0.020756        3.9792     1.12537     2.85387
   20          O           0.020013        5.9800     1.91621     4.06377
   21          N          -0.255406        5.2554     1.82038     3.43503
   22          C           0.134302        3.8657     1.08391     2.78179
   23          C          -0.434821        4.4348     1.04490     3.38992
   24          C          -0.293066        4.2931     1.09164     3.20142
   25          N          -0.605526        5.6055     1.76476     3.84077
   26          N          -0.311034        5.3110     1.80354     3.50749
   27          N          -0.197413        5.1974     1.51291     3.68450
   28          C          -0.350276        4.3503     1.07016     3.28012
   29          C           0.323209        3.6768     1.08721     2.58958
   30          O          -0.311010        6.3110     1.86522     4.44579
   31          C          -0.201287        4.2013     1.08784     3.11345
   32          C          -0.421052        4.4211     1.06569     3.35536
   33          H           0.134076        0.8659     0.86592
   34          H           0.136017        0.8640     0.86398
   35          H           0.153959        0.8460     0.84604
   36          H           0.166705        0.8333     0.83329
   37          H           0.165846        0.8342     0.83415
   38          H           0.156478        0.8435     0.84352
   39          H           0.160245        0.8398     0.83976
   40          H           0.177945        0.8221     0.82205
   41          H           0.188901        0.8111     0.81110
   42          H           0.345637        0.6544     0.65436
   43          H           0.192765        0.8072     0.80724
   44          H           0.171196        0.8288     0.82880
   45          H           0.322800        0.6772     0.67720
   46          H           0.207384        0.7926     0.79262
   47          H           0.172407        0.8276     0.82759
   48          H           0.173655        0.8263     0.82635
   49          H           0.168920        0.8311     0.83108
   50          H           0.175168        0.8248     0.82483
   51          H           0.191416        0.8086     0.80858
   52          H           0.330406        0.6696     0.66959
   53          H           0.179934        0.8201     0.82007
   54          H           0.138011        0.8620     0.86199
   55          H           0.153165        0.8468     0.84683
   56          H           0.137188        0.8628     0.86281
   57          H           0.185080        0.8149     0.81492
 DIPOLE           X         Y         Z       TOTAL
 POINT-CHG.    -6.232     1.418     0.439     6.406
 HYBRID        -1.102    -0.242     0.787     1.375
 SUM           -7.334     1.176     1.226     7.528


          ATOMIC ORBITAL ELECTRON POPULATIONS

     Atom    s        px        py        pz   
    1  C   1.08726   1.15954   0.89349   1.06105
    2  O   1.86521   1.37348   1.40249   1.67380
    3  C   1.08699   0.85835   0.89110   0.83495
    4  C   1.06662   1.00726   1.13446   1.19616
    5  C   1.07115   0.94946   0.93754   0.89670
    6  C   1.05887   1.01903   1.14881   1.05658
    7  C   1.05208   1.00508   1.14116   1.07149
    8  C   1.07583   0.98818   0.84362   0.99230
    9  C   1.07637   0.98109   1.07925   1.19793
   10  C   1.04710   0.81379   0.90841   0.98975
   11  N   1.52384   1.12946   1.51603   1.27623
   12  C   1.05109   0.83185   0.82967   0.80911
   13  C   1.06807   1.12803   1.21674   1.07262
   14  C   1.09762   0.85618   0.88044   0.96508
   15  N   1.76097   1.21314   1.26814   1.30851
   16  C   1.05250   0.83223   0.78374   0.78569
   17  N   1.57065   1.10410   1.44221   1.35466
   18  C   1.06020   0.99473   0.99765   1.02776
   19  C   1.12537   0.88088   0.99131   0.98168
   20  O   1.91621   1.27211   1.25933   1.53233
   21  N   1.82038   1.25628   1.00968   1.16907
   22  C   1.08391   0.89249   0.94451   0.94478
   23  C   1.04490   1.20104   1.03726   1.15162
   24  C   1.09164   1.09005   1.01621   1.09516
   25  N   1.76476   1.13596   1.39382   1.31099
   26  N   1.80354   0.93818   1.25209   1.31722
   27  N   1.51291   1.08835   1.15801   1.43813
   28  C   1.07016   1.04807   1.06559   1.16646
   29  C   1.08721   0.95138   0.80319   0.83501
   30  O   1.86522   1.33114   1.40032   1.71432
   31  C   1.08784   0.88789   1.07765   1.14791
   32  C   1.06569   1.10657   1.07160   1.17718
   33  H   0.86592
   34  H   0.86398
   35  H   0.84604
   36  H   0.83329
   37  H   0.83415
   38  H   0.84352
   39  H   0.83976
   40  H   0.82205
   41  H   0.81110
   42  H   0.65436
   43  H   0.80724
   44  H   0.82880
   45  H   0.67720
   46  H   0.79262
   47  H   0.82759
   48  H   0.82635
   49  H   0.83108
   50  H   0.82483
   51  H   0.80858
   52  H   0.66959
   53  H   0.82007
   54  H   0.86199
   55  H   0.84683
   56  H   0.86281
   57  H   0.81492

 **********************
 *                    *
 * JOB ENDED NORMALLY *
 *                    *
 **********************



 TOTAL JOB TIME:            24.37 SECONDS

 == MOPAC DONE ==
