 *******************************************************************************
 **                                                                           **
 **                              MOPAC v23.0.3                                **
 **                                                                           **
 *******************************************************************************
 **          Digital Object Identifier (DOI): 10.5281/zenodo.6511958          **
 **    Visit the DOI location for information on how to cite this program.    **
 *******************************************************************************

                              PM7 CALCULATION RESULTS

 *******************************************************************************
 *  CALCULATION DONE:                                Fri Jul 25 19:14:13 2025  *
 *  PM7        - The PM7 Hamiltonian to be used
 *  XYZ        - CARTESIAN COORDINATE SYSTEM TO BE USED
 *  T=         - A TIME OF 172800.0 SECONDS REQUESTED
 *  DUMP=N     - RESTART FILE WRITTEN EVERY 7200.0 SECONDS REQUESTED
 *******************************************************************************
PM7 XYZ

 Lipophilicity_243 - geometry optimisation
   ATOM   CHEMICAL          X               Y               Z
  NUMBER   SYMBOL      (ANGSTROMS)     (ANGSTROMS)     (ANGSTROMS)

     1       C          2.47655800  *   3.01846000  *   1.40742100  *
     2       O          3.54557800  *   2.97753600  *   0.46716800  *
     3       C          3.74446100  *   1.94592400  *  -0.46289900  *
     4       C          4.82897100  *   2.04016900  *  -1.33804100  *
     5       C          5.05226900  *   1.03000600  *  -2.27312700  *
     6       N          4.21507600  *  -0.03783500  *  -2.33551000  *
     7       C          3.14265800  *  -0.16930300  *  -1.50722400  *
     8       N          2.30560000  *  -1.33289000  *  -1.64115200  *
     9       C          1.02195900  *  -1.52041500  *  -0.95179900  *
    10       C          0.55318800  *  -2.98086000  *  -1.07574400  *
    11       C         -0.71499000  *  -3.20002800  *  -0.23708800  *
    12       N         -1.61870600  *  -2.04436300  *  -0.31744300  *
    13       C         -1.48239300  *  -1.08970900  *  -1.42584600  *
    14       C         -0.04259000  *  -0.55057400  *  -1.52362700  *
    15       C         -2.75024700  *  -1.97849200  *   0.56714100  *
    16       O         -3.40785600  *  -3.02744400  *   0.80814900  *
    17       C         -3.13927400  *  -0.70805900  *   1.22155000  *
    18       C         -2.17963800  *   0.28726800  *   1.47867700  *
    19       C         -2.54836800  *   1.48225600  *   2.10324300  *
    20       C         -3.87781200  *   1.69301800  *   2.48694100  *
    21       C         -4.83652500  *   0.70114700  *   2.24870000  *
    22       C         -4.46919200  *  -0.49483900  *   1.62391900  *
    23       C         -4.25668700  *   2.92355100  *   3.13058600  *
    24       N         -4.56123500  *   3.91286300  *   3.64803000  *
    25       C          2.89500900  *   0.82737300  *  -0.54355200  *
    26       H          2.53626000  *   2.14604100  *   2.09194300  *
    27       H          1.50067200  *   3.02197200  *   0.87702700  *
    28       H          2.55754500  *   3.94722700  *   2.00834700  *
    29       H          5.49614400  *   2.89156600  *  -1.29209600  *
    30       H          5.89194900  *   1.09521100  *  -2.95206200  *
    31       H          2.63051300  *  -2.07587900  *  -2.30175400  *
    32       H          1.16097200  *  -1.32093300  *   0.13382000  *
    33       H          1.35066900  *  -3.66909800  *  -0.71967200  *
    34       H          0.34282700  *  -3.21961400  *  -2.14190900  *
    35       H         -1.24070800  *  -4.11565300  *  -0.58366700  *
    36       H         -0.41472900  *  -3.34940100  *   0.82345100  *
    37       H         -2.19132400  *  -0.24010600  *  -1.32051500  *
    38       H         -1.74241700  *  -1.61202000  *  -2.37227900  *
    39       H          0.01620000  *   0.41642200  *  -0.98106100  *
    40       H          0.17550200  *  -0.33561400  *  -2.59303100  *
    41       H         -1.14155200  *   0.13504700  *   1.21349600  *
    42       H         -1.79568500  *   2.23854000  *   2.29188800  *
    43       H         -5.86758100  *   0.85204100  *   2.54545900  *
    44       H         -5.22640100  *  -1.24815100  *   1.44469100  *
    45       H          2.06533300  *   0.73763900  *   0.13867200  *



          CARTESIAN COORDINATES 

    NO.       ATOM           X           Y           Z

     1         C          2.4766      3.0185      1.4074
     2         O          3.5456      2.9775      0.4672
     3         C          3.7445      1.9459     -0.4629
     4         C          4.8290      2.0402     -1.3380
     5         C          5.0523      1.0300     -2.2731
     6         N          4.2151     -0.0378     -2.3355
     7         C          3.1427     -0.1693     -1.5072
     8         N          2.3056     -1.3329     -1.6412
     9         C          1.0220     -1.5204     -0.9518
    10         C          0.5532     -2.9809     -1.0757
    11         C         -0.7150     -3.2000     -0.2371
    12         N         -1.6187     -2.0444     -0.3174
    13         C         -1.4824     -1.0897     -1.4258
    14         C         -0.0426     -0.5506     -1.5236
    15         C         -2.7502     -1.9785      0.5671
    16         O         -3.4079     -3.0274      0.8081
    17         C         -3.1393     -0.7081      1.2215
    18         C         -2.1796      0.2873      1.4787
    19         C         -2.5484      1.4823      2.1032
    20         C         -3.8778      1.6930      2.4869
    21         C         -4.8365      0.7011      2.2487
    22         C         -4.4692     -0.4948      1.6239
    23         C         -4.2567      2.9236      3.1306
    24         N         -4.5612      3.9129      3.6480
    25         C          2.8950      0.8274     -0.5436
    26         H          2.5363      2.1460      2.0919
    27         H          1.5007      3.0220      0.8770
    28         H          2.5575      3.9472      2.0083
    29         H          5.4961      2.8916     -1.2921
    30         H          5.8919      1.0952     -2.9521
    31         H          2.6305     -2.0759     -2.3018
    32         H          1.1610     -1.3209      0.1338
    33         H          1.3507     -3.6691     -0.7197
    34         H          0.3428     -3.2196     -2.1419
    35         H         -1.2407     -4.1157     -0.5837
    36         H         -0.4147     -3.3494      0.8235
    37         H         -2.1913     -0.2401     -1.3205
    38         H         -1.7424     -1.6120     -2.3723
    39         H          0.0162      0.4164     -0.9811
    40         H          0.1755     -0.3356     -2.5930
    41         H         -1.1416      0.1350      1.2135
    42         H         -1.7957      2.2385      2.2919
    43         H         -5.8676      0.8520      2.5455
    44         H         -5.2264     -1.2482      1.4447
    45         H          2.0653      0.7376      0.1387

 General Reference for PM7:
 "Optimization of Parameters for Semiempirical Methods VI: More Modifications to the 
 NDDO Approximations and Re-optimization of Parameters", J. J. P. Stewart, J. Mol. Mod., 1:32, 19 (2013)
 https://link.springer.com/article/10.1007/s00894-012-1667-x

           Empirical Formula: C19 H20 N4 O2  =    45 atoms



      MOLECULAR POINT GROUP   :   C1  


      RHF CALCULATION, NO. OF DOUBLY OCCUPIED LEVELS = 64


          Geometry optimization using L-BFGS
 CYCLE:     1 TIME:   0.047 TIME LEFT:  2.00D  GRAD.:   184.735 HEAT:  25.14626
 CYCLE:     2 TIME:   0.023 TIME LEFT:  2.00D  GRAD.:   180.919 HEAT:  24.80868
 CYCLE:     3 TIME:   0.031 TIME LEFT:  2.00D  GRAD.:    73.513 HEAT:  15.30682
 CYCLE:     4 TIME:   0.039 TIME LEFT:  2.00D  GRAD.:   181.121 HEAT:  24.80534
 CYCLE:     5 TIME:   0.031 TIME LEFT:  2.00D  GRAD.:    73.646 HEAT:  15.30884
 CYCLE:     6 TIME:   0.031 TIME LEFT:  2.00D  GRAD.:    75.598 HEAT:  14.21261
 CYCLE:     7 TIME:   0.023 TIME LEFT:  2.00D  GRAD.:    59.949 HEAT:  13.07193
 CYCLE:     8 TIME:   0.031 TIME LEFT:  2.00D  GRAD.:    44.854 HEAT:  10.79217
 CYCLE:     9 TIME:   0.031 TIME LEFT:  2.00D  GRAD.:    54.207 HEAT:  9.542477
 CYCLE:    10 TIME:   0.023 TIME LEFT:  2.00D  GRAD.:    31.515 HEAT:  8.441303
 CYCLE:    11 TIME:   0.031 TIME LEFT:  2.00D  GRAD.:    26.923 HEAT:  7.572554
 CYCLE:    12 TIME:   0.031 TIME LEFT:  2.00D  GRAD.:    30.382 HEAT:  6.931948
 CYCLE:    13 TIME:   0.039 TIME LEFT:  2.00D  GRAD.:    26.342 HEAT:  6.479747
 CYCLE:    14 TIME:   0.023 TIME LEFT:  2.00D  GRAD.:    15.974 HEAT:  6.194336
 CYCLE:    15 TIME:   0.031 TIME LEFT:  2.00D  GRAD.:    16.691 HEAT:  5.893562
 CYCLE:    16 TIME:   0.023 TIME LEFT:  2.00D  GRAD.:    17.628 HEAT:  5.645916
 CYCLE:    17 TIME:   0.031 TIME LEFT:  2.00D  GRAD.:    33.296 HEAT:  5.469993
 CYCLE:    18 TIME:   0.031 TIME LEFT:  2.00D  GRAD.:    12.814 HEAT:  5.214227
 CYCLE:    19 TIME:   0.023 TIME LEFT:  2.00D  GRAD.:     9.787 HEAT:  5.125128
 CYCLE:    20 TIME:   0.031 TIME LEFT:  2.00D  GRAD.:    10.411 HEAT:  5.006943
 CYCLE:    21 TIME:   0.031 TIME LEFT:  2.00D  GRAD.:    63.909 HEAT:  5.216628
 CYCLE:    22 TIME:   0.023 TIME LEFT:  2.00D  GRAD.:    10.660 HEAT:  4.889969
 CYCLE:    23 TIME:   0.031 TIME LEFT:  2.00D  GRAD.:     7.207 HEAT:  4.862575
 CYCLE:    24 TIME:   0.023 TIME LEFT:  2.00D  GRAD.:     7.637 HEAT:  4.813304
 CYCLE:    25 TIME:   0.031 TIME LEFT:  2.00D  GRAD.:     8.542 HEAT:  4.760084
 CYCLE:    26 TIME:   0.031 TIME LEFT:  2.00D  GRAD.:    27.379 HEAT:  4.724007
 CYCLE:    27 TIME:   0.023 TIME LEFT:  2.00D  GRAD.:     7.879 HEAT:  4.600496
 CYCLE:    28 TIME:   0.031 TIME LEFT:  2.00D  GRAD.:     6.595 HEAT:  4.565842
 CYCLE:    29 TIME:   0.023 TIME LEFT:  2.00D  GRAD.:     8.745 HEAT:  4.482358
 CYCLE:    30 TIME:   0.031 TIME LEFT:  2.00D  GRAD.:    16.938 HEAT:  4.373087
 CYCLE:    31 TIME:   0.031 TIME LEFT:  2.00D  GRAD.:    13.606 HEAT:  4.242374
 CYCLE:    32 TIME:   0.031 TIME LEFT:  2.00D  GRAD.:    11.297 HEAT:  4.098150
 CYCLE:    33 TIME:   0.031 TIME LEFT:  2.00D  GRAD.:    14.216 HEAT:  3.951835
 CYCLE:    34 TIME:   0.031 TIME LEFT:  2.00D  GRAD.:    14.603 HEAT:  3.795580
 CYCLE:    35 TIME:   0.039 TIME LEFT:  2.00D  GRAD.:    22.767 HEAT:  3.684195
 CYCLE:    36 TIME:   0.031 TIME LEFT:  2.00D  GRAD.:    74.389 HEAT:  3.780441
 CYCLE:    37 TIME:   0.039 TIME LEFT:  2.00D  GRAD.:    18.896 HEAT:  3.383045
 CYCLE:    38 TIME:   0.031 TIME LEFT:  2.00D  GRAD.:    15.973 HEAT:  3.339995
 CYCLE:    39 TIME:   0.031 TIME LEFT:  2.00D  GRAD.:    10.911 HEAT:  3.202471
 CYCLE:    40 TIME:   0.031 TIME LEFT:  2.00D  GRAD.:    18.093 HEAT:  3.119264
 CYCLE:    41 TIME:   0.023 TIME LEFT:  2.00D  GRAD.:    10.562 HEAT:  3.004369
 CYCLE:    42 TIME:   0.031 TIME LEFT:  2.00D  GRAD.:    10.108 HEAT:  2.895779
 CYCLE:    43 TIME:   0.031 TIME LEFT:  2.00D  GRAD.:    11.789 HEAT:  2.816954
 CYCLE:    44 TIME:   0.031 TIME LEFT:  2.00D  GRAD.:    10.098 HEAT:  2.721116
 CYCLE:    45 TIME:   0.031 TIME LEFT:  2.00D  GRAD.:     9.171 HEAT:  2.660335
 CYCLE:    46 TIME:   0.031 TIME LEFT:  2.00D  GRAD.:    10.180 HEAT:  2.587955
 CYCLE:    47 TIME:   0.031 TIME LEFT:  2.00D  GRAD.:    11.884 HEAT:  2.476329
 CYCLE:    48 TIME:   0.031 TIME LEFT:  2.00D  GRAD.:    18.150 HEAT:  2.436657
 CYCLE:    49 TIME:   0.023 TIME LEFT:  2.00D  GRAD.:     8.401 HEAT:  2.364091
 CYCLE:    50 TIME:   0.031 TIME LEFT:  2.00D  GRAD.:    10.977 HEAT:  2.316872
 CYCLE:    51 TIME:   0.031 TIME LEFT:  2.00D  GRAD.:    10.879 HEAT:  2.259661
 CYCLE:    52 TIME:   0.031 TIME LEFT:  2.00D  GRAD.:    15.850 HEAT:  2.218747
 CYCLE:    53 TIME:   0.031 TIME LEFT:  2.00D  GRAD.:    19.738 HEAT:  2.148639
 CYCLE:    54 TIME:   0.031 TIME LEFT:  2.00D  GRAD.:     6.941 HEAT:  2.103934
 CYCLE:    55 TIME:   0.023 TIME LEFT:  2.00D  GRAD.:     6.550 HEAT:  2.077695
 CYCLE:    56 TIME:   0.031 TIME LEFT:  2.00D  GRAD.:    13.955 HEAT:  2.054501
 CYCLE:    57 TIME:   0.031 TIME LEFT:  2.00D  GRAD.:    14.984 HEAT:  2.032346
 CYCLE:    58 TIME:   0.047 TIME LEFT:  2.00D  GRAD.:     5.890 HEAT:  1.942072
 CYCLE:    59 TIME:   0.031 TIME LEFT:  2.00D  GRAD.:    15.574 HEAT:  1.940909
 CYCLE:    60 TIME:   0.031 TIME LEFT:  2.00D  GRAD.:     9.121 HEAT:  1.865730
 CYCLE:    61 TIME:   0.031 TIME LEFT:  2.00D  GRAD.:     5.716 HEAT:  1.823849
 CYCLE:    62 TIME:   0.031 TIME LEFT:  2.00D  GRAD.:     6.763 HEAT:  1.755789
 CYCLE:    63 TIME:   0.031 TIME LEFT:  2.00D  GRAD.:    13.336 HEAT:  1.630271
 CYCLE:    64 TIME:   0.031 TIME LEFT:  2.00D  GRAD.:    30.442 HEAT:  1.618038
 CYCLE:    65 TIME:   0.031 TIME LEFT:  2.00D  GRAD.:    10.814 HEAT:  1.468356
 CYCLE:    66 TIME:   0.031 TIME LEFT:  2.00D  GRAD.:     6.658 HEAT:  1.403199
 CYCLE:    67 TIME:   0.031 TIME LEFT:  2.00D  GRAD.:    16.031 HEAT:  1.355400
 CYCLE:    68 TIME:   0.031 TIME LEFT:  2.00D  GRAD.:    19.315 HEAT:  1.320093
 CYCLE:    69 TIME:   0.023 TIME LEFT:  2.00D  GRAD.:    32.176 HEAT:  1.291774
 CYCLE:    70 TIME:   0.031 TIME LEFT:  2.00D  GRAD.:     8.757 HEAT:  1.191651
 CYCLE:    71 TIME:   0.031 TIME LEFT:  2.00D  GRAD.:     9.259 HEAT:  1.151828
 CYCLE:    72 TIME:   0.031 TIME LEFT:  2.00D  GRAD.:    16.301 HEAT:  1.129963
 CYCLE:    73 TIME:   0.031 TIME LEFT:  2.00D  GRAD.:    31.781 HEAT:  1.177426
 CYCLE:    74 TIME:   0.023 TIME LEFT:  2.00D  GRAD.:     6.773 HEAT:  1.008567
 CYCLE:    75 TIME:   0.031 TIME LEFT:  2.00D  GRAD.:     5.377 HEAT: 0.9840171
 CYCLE:    76 TIME:   0.031 TIME LEFT:  2.00D  GRAD.:    13.777 HEAT: 0.9750322
 CYCLE:    77 TIME:   0.031 TIME LEFT:  2.00D  GRAD.:    10.361 HEAT: 0.8938574
 CYCLE:    78 TIME:   0.031 TIME LEFT:  2.00D  GRAD.:     8.022 HEAT: 0.8372794
 CYCLE:    79 TIME:   0.031 TIME LEFT:  2.00D  GRAD.:     9.806 HEAT: 0.7786921
 CYCLE:    80 TIME:   0.031 TIME LEFT:  2.00D  GRAD.:    17.482 HEAT: 0.7496063
 CYCLE:    81 TIME:   0.031 TIME LEFT:  2.00D  GRAD.:    16.841 HEAT: 0.6778950
 CYCLE:    82 TIME:   0.031 TIME LEFT:  2.00D  GRAD.:     4.603 HEAT: 0.6248676
 CYCLE:    83 TIME:   0.031 TIME LEFT:  2.00D  GRAD.:     5.030 HEAT: 0.5974293
 CYCLE:    84 TIME:   0.031 TIME LEFT:  2.00D  GRAD.:    12.334 HEAT: 0.5827130
 CYCLE:    85 TIME:   0.031 TIME LEFT:  2.00D  GRAD.:    49.568 HEAT: 0.8559614
 CYCLE:    86 TIME:   0.031 TIME LEFT:  2.00D  GRAD.:    47.351 HEAT: 0.6985133
 CYCLE:    87 TIME:   0.031 TIME LEFT:  2.00D  GRAD.:    11.530 HEAT: 0.5184305
 CYCLE:    88 TIME:   0.031 TIME LEFT:  2.00D  GRAD.:    11.700 HEAT: 0.4975516
 CYCLE:    89 TIME:   0.031 TIME LEFT:  2.00D  GRAD.:     5.704 HEAT: 0.4424161
 CYCLE:    90 TIME:   0.031 TIME LEFT:  2.00D  GRAD.:    10.602 HEAT: 0.4202757
 CYCLE:    91 TIME:   0.031 TIME LEFT:  2.00D  GRAD.:     5.200 HEAT: 0.3882039
 CYCLE:    92 TIME:   0.023 TIME LEFT:  2.00D  GRAD.:     3.268 HEAT: 0.3692900
 CYCLE:    93 TIME:   0.031 TIME LEFT:  2.00D  GRAD.:     4.761 HEAT: 0.3486509
 CYCLE:    94 TIME:   0.031 TIME LEFT:  2.00D  GRAD.:     8.067 HEAT: 0.3430781
 CYCLE:    95 TIME:   0.031 TIME LEFT:  2.00D  GRAD.:     3.539 HEAT: 0.3318558
 CYCLE:    96 TIME:   0.031 TIME LEFT:  2.00D  GRAD.:     3.882 HEAT: 0.3210808
 CYCLE:    97 TIME:   0.039 TIME LEFT:  2.00D  GRAD.:     3.181 HEAT: 0.3130808
 CYCLE:    98 TIME:   0.031 TIME LEFT:  2.00D  GRAD.:     9.732 HEAT: 0.3026614
 CYCLE:    99 TIME:   0.031 TIME LEFT:  2.00D  GRAD.:     4.524 HEAT: 0.2818816
 CYCLE:   100 TIME:   0.023 TIME LEFT:  2.00D  GRAD.:     4.873 HEAT: 0.2722242
 CYCLE:   101 TIME:   0.031 TIME LEFT:  2.00D  GRAD.:     4.709 HEAT: 0.2674351
 CYCLE:   102 TIME:   0.031 TIME LEFT:  2.00D  GRAD.:     6.753 HEAT: 0.2553962
 CYCLE:   103 TIME:   0.031 TIME LEFT:  2.00D  GRAD.:     6.593 HEAT: 0.2368827
 CYCLE:   104 TIME:   0.023 TIME LEFT:  2.00D  GRAD.:     4.276 HEAT: 0.2253597
 CYCLE:   105 TIME:   0.031 TIME LEFT:  2.00D  GRAD.:     4.459 HEAT: 0.2214863
 CYCLE:   106 TIME:   0.023 TIME LEFT:  2.00D  GRAD.:     2.672 HEAT: 0.2181935
 CYCLE:   107 TIME:   0.031 TIME LEFT:  2.00D  GRAD.:     6.173 HEAT: 0.2136096
 CYCLE:   108 TIME:   0.031 TIME LEFT:  2.00D  GRAD.:     5.671 HEAT: 0.2090504
 CYCLE:   109 TIME:   0.031 TIME LEFT:  2.00D  GRAD.:     5.002 HEAT: 0.2033222
 CYCLE:   110 TIME:   0.031 TIME LEFT:  2.00D  GRAD.:    18.264 HEAT: 0.2510404
 CYCLE:   111 TIME:   0.023 TIME LEFT:  2.00D  GRAD.:     7.152 HEAT: 0.2006457
 CYCLE:   112 TIME:   0.039 TIME LEFT:  2.00D  GRAD.:     5.624 HEAT: 0.1880932
 CYCLE:   113 TIME:   0.031 TIME LEFT:  2.00D  GRAD.:     7.889 HEAT: 0.2030842
 CYCLE:   114 TIME:   0.031 TIME LEFT:  2.00D  GRAD.:     5.638 HEAT: 0.1718030
 CYCLE:   115 TIME:   0.023 TIME LEFT:  2.00D  GRAD.:     2.233 HEAT: 0.1649249
 CYCLE:   116 TIME:   0.031 TIME LEFT:  2.00D  GRAD.:    11.597 HEAT: 0.2132947
 CYCLE:   117 TIME:   0.039 TIME LEFT:  2.00D  GRAD.:     3.164 HEAT: 0.1555547
 CYCLE:   118 TIME:   0.023 TIME LEFT:  2.00D  GRAD.:     2.209 HEAT: 0.1499639
 CYCLE:   119 TIME:   0.031 TIME LEFT:  2.00D  GRAD.:     4.298 HEAT: 0.1414025
 CYCLE:   120 TIME:   0.031 TIME LEFT:  2.00D  GRAD.:     5.576 HEAT: 0.1306467
 CYCLE:   121 TIME:   0.031 TIME LEFT:  2.00D  GRAD.:    11.656 HEAT: 0.1228762
 CYCLE:   122 TIME:   0.023 TIME LEFT:  2.00D  GRAD.:     5.918 HEAT: 0.1058403
 CYCLE:   123 TIME:   0.031 TIME LEFT:  2.00D  GRAD.:     4.301 HEAT: 0.9469020E-01
 CYCLE:   124 TIME:   0.031 TIME LEFT:  2.00D  GRAD.:     4.960 HEAT: 0.9038582E-01
 CYCLE:   125 TIME:   0.047 TIME LEFT:  2.00D  GRAD.:     3.722 HEAT: 0.7864189E-01
 CYCLE:   126 TIME:   0.039 TIME LEFT:  2.00D  GRAD.:    12.335 HEAT: 0.5914943E-01
 CYCLE:   127 TIME:   0.031 TIME LEFT:  2.00D  GRAD.:    11.759 HEAT: 0.7324043E-01
 CYCLE:   128 TIME:   0.031 TIME LEFT:  2.00D  GRAD.:     4.984 HEAT: 0.1920514E-01
 CYCLE:   129 TIME:   0.031 TIME LEFT:  2.00D  GRAD.:     6.833 HEAT: 0.1124162E-01
 CYCLE:   130 TIME:   0.031 TIME LEFT:  2.00D  GRAD.:     6.183 HEAT:-0.7548628E-02
 CYCLE:   131 TIME:   0.023 TIME LEFT:  2.00D  GRAD.:     4.649 HEAT:-0.4496037E-01
 CYCLE:   132 TIME:   0.031 TIME LEFT:  2.00D  GRAD.:     5.226 HEAT:-0.6637838E-01
 CYCLE:   133 TIME:   0.031 TIME LEFT:  2.00D  GRAD.:     7.912 HEAT:-0.8250224E-01
 CYCLE:   134 TIME:   0.023 TIME LEFT:  2.00D  GRAD.:     4.717 HEAT:-0.1081897
 CYCLE:   135 TIME:   0.031 TIME LEFT:  2.00D  GRAD.:     5.725 HEAT:-0.1342230
 CYCLE:   136 TIME:   0.031 TIME LEFT:  2.00D  GRAD.:     9.920 HEAT:-0.1525204
 CYCLE:   137 TIME:   0.023 TIME LEFT:  2.00D  GRAD.:     7.609 HEAT:-0.1781404
 CYCLE:   138 TIME:   0.031 TIME LEFT:  2.00D  GRAD.:     7.184 HEAT:-0.2151462
 CYCLE:   139 TIME:   0.031 TIME LEFT:  2.00D  GRAD.:    20.196 HEAT:-0.2181887
 CYCLE:   140 TIME:   0.031 TIME LEFT:  2.00D  GRAD.:     7.162 HEAT:-0.2754066
 CYCLE:   141 TIME:   0.031 TIME LEFT:  2.00D  GRAD.:     5.326 HEAT:-0.2976702
 CYCLE:   142 TIME:   0.039 TIME LEFT:  2.00D  GRAD.:     5.969 HEAT:-0.3417460
 CYCLE:   143 TIME:   0.023 TIME LEFT:  2.00D  GRAD.:     7.645 HEAT:-0.3741599
 CYCLE:   144 TIME:   0.039 TIME LEFT:  2.00D  GRAD.:    12.500 HEAT:-0.4110534
 CYCLE:   145 TIME:   0.023 TIME LEFT:  2.00D  GRAD.:     5.170 HEAT:-0.4557204
 CYCLE:   146 TIME:   0.031 TIME LEFT:  2.00D  GRAD.:     4.108 HEAT:-0.4709383
 CYCLE:   147 TIME:   0.031 TIME LEFT:  2.00D  GRAD.:     4.730 HEAT:-0.4917516
 CYCLE:   148 TIME:   0.031 TIME LEFT:  2.00D  GRAD.:    13.492 HEAT:-0.5059254
 CYCLE:   149 TIME:   0.023 TIME LEFT:  2.00D  GRAD.:     5.665 HEAT:-0.5413127
 CYCLE:   150 TIME:   0.031 TIME LEFT:  2.00D  GRAD.:     4.190 HEAT:-0.5612598
 CYCLE:   151 TIME:   0.039 TIME LEFT:  2.00D  GRAD.:     5.043 HEAT:-0.5788746
 CYCLE:   152 TIME:   0.031 TIME LEFT:  2.00D  GRAD.:    16.153 HEAT:-0.5712357
 CYCLE:   153 TIME:   0.031 TIME LEFT:  2.00D  GRAD.:     4.406 HEAT:-0.6042704
 CYCLE:   154 TIME:   0.031 TIME LEFT:  2.00D  GRAD.:     3.318 HEAT:-0.6082667
 CYCLE:   155 TIME:   0.023 TIME LEFT:  2.00D  GRAD.:     4.265 HEAT:-0.6233656
 CYCLE:   156 TIME:   0.031 TIME LEFT:  2.00D  GRAD.:     4.059 HEAT:-0.6378182
 CYCLE:   157 TIME:   0.031 TIME LEFT:  2.00D  GRAD.:     6.270 HEAT:-0.6429984
 CYCLE:   158 TIME:   0.031 TIME LEFT:  2.00D  GRAD.:     3.067 HEAT:-0.6535549
 CYCLE:   159 TIME:   0.023 TIME LEFT:  2.00D  GRAD.:     2.062 HEAT:-0.6570743
 CYCLE:   160 TIME:   0.031 TIME LEFT:  2.00D  GRAD.:     2.330 HEAT:-0.6617619
 CYCLE:   161 TIME:   0.031 TIME LEFT:  2.00D  GRAD.:     3.360 HEAT:-0.6671085
 CYCLE:   162 TIME:   0.023 TIME LEFT:  2.00D  GRAD.:     3.433 HEAT:-0.6732008
 CYCLE:   163 TIME:   0.031 TIME LEFT:  2.00D  GRAD.:     2.393 HEAT:-0.6780929
 CYCLE:   164 TIME:   0.031 TIME LEFT:  2.00D  GRAD.:     2.136 HEAT:-0.6825732
 CYCLE:   165 TIME:   0.031 TIME LEFT:  2.00D  GRAD.:     4.088 HEAT:-0.6894833
 CYCLE:   166 TIME:   0.023 TIME LEFT:  2.00D  GRAD.:     4.086 HEAT:-0.6974798
 CYCLE:   167 TIME:   0.031 TIME LEFT:  2.00D  GRAD.:     3.549 HEAT:-0.7027328
 CYCLE:   168 TIME:   0.031 TIME LEFT:  2.00D  GRAD.:     3.656 HEAT:-0.7064940
 CYCLE:   169 TIME:   0.023 TIME LEFT:  2.00D  GRAD.:     2.780 HEAT:-0.7099739
 CYCLE:   170 TIME:   0.031 TIME LEFT:  2.00D  GRAD.:     3.070 HEAT:-0.7139352
 CYCLE:   171 TIME:   0.031 TIME LEFT:  2.00D  GRAD.:     2.801 HEAT:-0.7253757
 CYCLE:   172 TIME:   0.031 TIME LEFT:  2.00D  GRAD.:     9.164 HEAT:-0.7339900
 CYCLE:   173 TIME:   0.023 TIME LEFT:  2.00D  GRAD.:     7.402 HEAT:-0.7518725
 CYCLE:   174 TIME:   0.031 TIME LEFT:  2.00D  GRAD.:     3.220 HEAT:-0.7608598
 CYCLE:   175 TIME:   0.023 TIME LEFT:  2.00D  GRAD.:     2.483 HEAT:-0.7663549
 CYCLE:   176 TIME:   0.031 TIME LEFT:  2.00D  GRAD.:     6.385 HEAT:-0.7687415
 CYCLE:   177 TIME:   0.031 TIME LEFT:  2.00D  GRAD.:     2.897 HEAT:-0.7853844
 CYCLE:   178 TIME:   0.039 TIME LEFT:  2.00D  GRAD.:     3.813 HEAT:-0.7921658
 CYCLE:   179 TIME:   0.023 TIME LEFT:  2.00D  GRAD.:     3.284 HEAT:-0.7996202
 CYCLE:   180 TIME:   0.031 TIME LEFT:  2.00D  GRAD.:     3.028 HEAT:-0.8107634
 CYCLE:   181 TIME:   0.031 TIME LEFT:  2.00D  GRAD.:     4.750 HEAT:-0.8194235
 CYCLE:   182 TIME:   0.062 TIME LEFT:  2.00D  GRAD.:     7.375 HEAT:-0.8273821
 CYCLE:   183 TIME:   0.039 TIME LEFT:  2.00D  GRAD.:     2.859 HEAT:-0.8363887
 CYCLE:   184 TIME:   0.023 TIME LEFT:  2.00D  GRAD.:     2.976 HEAT:-0.8406489
 CYCLE:   185 TIME:   0.039 TIME LEFT:  2.00D  GRAD.:     2.783 HEAT:-0.8468053
 CYCLE:   186 TIME:   0.031 TIME LEFT:  2.00D  GRAD.:     5.776 HEAT:-0.8539836
 CYCLE:   187 TIME:   0.023 TIME LEFT:  2.00D  GRAD.:     2.516 HEAT:-0.8624938
 CYCLE:   188 TIME:   0.031 TIME LEFT:  2.00D  GRAD.:     2.106 HEAT:-0.8657626
 CYCLE:   189 TIME:   0.031 TIME LEFT:  2.00D  GRAD.:     2.674 HEAT:-0.8717389
 CYCLE:   190 TIME:   0.031 TIME LEFT:  2.00D  GRAD.:     3.409 HEAT:-0.8788901
 CYCLE:   191 TIME:   0.023 TIME LEFT:  2.00D  GRAD.:     3.054 HEAT:-0.8851822
 CYCLE:   192 TIME:   0.031 TIME LEFT:  2.00D  GRAD.:     2.283 HEAT:-0.8913744
 CYCLE:   193 TIME:   0.031 TIME LEFT:  2.00D  GRAD.:     2.479 HEAT:-0.8966572
 CYCLE:   194 TIME:   0.023 TIME LEFT:  2.00D  GRAD.:     3.194 HEAT:-0.9007852
 CYCLE:   195 TIME:   0.031 TIME LEFT:  2.00D  GRAD.:     2.226 HEAT:-0.9048508
 CYCLE:   196 TIME:   0.031 TIME LEFT:  2.00D  GRAD.:     3.963 HEAT:-0.9073697
 CYCLE:   197 TIME:   0.031 TIME LEFT:  2.00D  GRAD.:     5.024 HEAT:-0.9093883
 CYCLE:   198 TIME:   0.031 TIME LEFT:  2.00D  GRAD.:     2.649 HEAT:-0.9131997
 CYCLE:   199 TIME:   0.023 TIME LEFT:  2.00D  GRAD.:     1.730 HEAT:-0.9148164
 CYCLE:   200 TIME:   0.031 TIME LEFT:  2.00D  GRAD.:     2.059 HEAT:-0.9181936
 CYCLE:   201 TIME:   0.031 TIME LEFT:  2.00D  GRAD.:     2.744 HEAT:-0.9202226
 CYCLE:   202 TIME:   0.031 TIME LEFT:  2.00D  GRAD.:     1.802 HEAT:-0.9239446
 CYCLE:   203 TIME:   0.031 TIME LEFT:  2.00D  GRAD.:     1.904 HEAT:-0.9257971
 CYCLE:   204 TIME:   0.023 TIME LEFT:  2.00D  GRAD.:     1.603 HEAT:-0.9281655
 CYCLE:   205 TIME:   0.031 TIME LEFT:  2.00D  GRAD.:     2.145 HEAT:-0.9323585
 CYCLE:   206 TIME:   0.031 TIME LEFT:  2.00D  GRAD.:     5.730 HEAT:-0.9311613
 CYCLE:   207 TIME:   0.031 TIME LEFT:  2.00D  GRAD.:     2.014 HEAT:-0.9365510
 CYCLE:   208 TIME:   0.023 TIME LEFT:  2.00D  GRAD.:     1.347 HEAT:-0.9386927
 CYCLE:   209 TIME:   0.031 TIME LEFT:  2.00D  GRAD.:     2.195 HEAT:-0.9422195
 CYCLE:   210 TIME:   0.039 TIME LEFT:  2.00D  GRAD.:     2.747 HEAT:-0.9471942
 CYCLE:   211 TIME:   0.023 TIME LEFT:  2.00D  GRAD.:     5.170 HEAT:-0.9527612
 CYCLE:   212 TIME:   0.031 TIME LEFT:  2.00D  GRAD.:     5.154 HEAT:-0.9582132
 CYCLE:   213 TIME:   0.031 TIME LEFT:  2.00D  GRAD.:     3.479 HEAT:-0.9611007
 CYCLE:   214 TIME:   0.031 TIME LEFT:  2.00D  GRAD.:     2.804 HEAT:-0.9686497
 CYCLE:   215 TIME:   0.031 TIME LEFT:  2.00D  GRAD.:     3.016 HEAT:-0.9706309
 CYCLE:   216 TIME:   0.031 TIME LEFT:  2.00D  GRAD.:     5.013 HEAT:-0.9746052
 CYCLE:   217 TIME:   0.023 TIME LEFT:  2.00D  GRAD.:     1.978 HEAT:-0.9787134
 CYCLE:   218 TIME:   0.117 TIME LEFT:  2.00D  GRAD.:     1.415 HEAT:-0.9801606
 CYCLE:   219 TIME:   0.031 TIME LEFT:  2.00D  GRAD.:     2.246 HEAT:-0.9830899
 CYCLE:   220 TIME:   0.031 TIME LEFT:  2.00D  GRAD.:     1.834 HEAT:-0.9858087
 CYCLE:   221 TIME:   0.031 TIME LEFT:  2.00D  GRAD.:     2.523 HEAT:-0.9868692
 CYCLE:   222 TIME:   0.023 TIME LEFT:  2.00D  GRAD.:     1.315 HEAT:-0.9887460
 CYCLE:   223 TIME:   0.031 TIME LEFT:  2.00D  GRAD.:     2.456 HEAT:-0.9883189
 CYCLE:   224 TIME:   0.031 TIME LEFT:  2.00D  GRAD.:     1.581 HEAT:-0.9914646
 CYCLE:   225 TIME:   0.031 TIME LEFT:  2.00D  GRAD.:     3.007 HEAT:-0.9914394
 CYCLE:   226 TIME:   0.031 TIME LEFT:  2.00D  GRAD.:     1.469 HEAT:-0.9929844
 CYCLE:   227 TIME:   0.031 TIME LEFT:  2.00D  GRAD.:     1.221 HEAT:-0.9938254
 CYCLE:   228 TIME:   0.031 TIME LEFT:  2.00D  GRAD.:     1.622 HEAT:-0.9964474
 CYCLE:   229 TIME:   0.031 TIME LEFT:  2.00D  GRAD.:     7.150 HEAT:-0.9922143
 CYCLE:   230 TIME:   0.031 TIME LEFT:  2.00D  GRAD.:     1.312 HEAT: -1.000049
 CYCLE:   231 TIME:   0.031 TIME LEFT:  2.00D  GRAD.:     0.954 HEAT: -1.000673

 -------------------------------------------------------------------------------
 PM7 XYZ

 Lipophilicity_243 - geometry optimisation


     HERBERTS TEST WAS SATISFIED IN BFGS                      
     SCF FIELD WAS ACHIEVED                                   


                              PM7 CALCULATION
                                                       MOPAC v23.0.3 Linux
                                                       Fri Jul 25 19:14:21 2025




          FINAL HEAT OF FORMATION =         -1.00067 KCAL/MOL =      -4.18682 KJ/MOL


          COSMO AREA              =        347.01 SQUARE ANGSTROMS
          COSMO VOLUME            =        413.57 CUBIC ANGSTROMS

          GRADIENT NORM           =          0.95388          =       0.14220 PER ATOM
          IONIZATION POTENTIAL    =          8.861684 EV
          HOMO LUMO ENERGIES (EV) =         -8.862 -1.290
          NO. OF FILLED LEVELS    =         64
          MOLECULAR WEIGHT        =        336.3926         POINT GROUP:  C1  

          MOLECULAR DIMENSIONS (Angstroms)

            Atom       Atom       Distance
            H    43    H    30    11.66581
            H    35    N    24     8.76774
            H    38    H    26     5.16741


          SCF CALCULATIONS        =        232

          WALL-CLOCK TIME         =      7.164 SECONDS
          COMPUTATION TIME        =          2 MINUTES AND 22.684 SECONDS




   ATOM   CHEMICAL          X               Y               Z
  NUMBER   SYMBOL      (ANGSTROMS)     (ANGSTROMS)     (ANGSTROMS)

     1       C          2.35186161  *   2.46794967  *   1.85457445  *
     2       O          3.35874111  *   2.67506284  *   0.87028753  *
     3       C          3.38847358  *   1.82160763  *  -0.17708634  *
     4       C          4.38422833  *   2.12654020  *  -1.11953285  *
     5       C          4.47635004  *   1.30395123  *  -2.24241823  *
     6       N          3.67483946  *   0.24747078  *  -2.45650270  *
     7       C          2.73083671  *  -0.05142287  *  -1.50932473  *
     8       N          2.03847282  *  -1.21881717  *  -1.77034479  *
     9       C          0.79993012  *  -1.53404131  *  -1.05429729  *
    10       C          0.44901823  *  -3.01771470  *  -1.28417549  *
    11       C         -0.76403499  *  -3.41071692  *  -0.41448475  *
    12       N         -1.64120603  *  -2.25906845  *  -0.12968744  *
    13       C         -1.72342575  *  -1.30273577  *  -1.24094028  *
    14       C         -0.36656315  *  -0.62673798  *  -1.51818905  *
    15       C         -1.71369999  *  -1.81561774  *   1.18888290  *
    16       O         -1.32317840  *  -2.51427501  *   2.10070601  *
    17       C         -2.38131362  *  -0.50336256  *   1.43699974  *
    18       C         -1.59381824  *   0.59908891  *   1.76578065  *
    19       C         -2.20306270  *   1.82468864  *   2.01909434  *
    20       C         -3.59658270  *   1.93070738  *   1.94643485  *
    21       C         -4.38367825  *   0.81583423  *   1.63710729  *
    22       C         -3.77036154  *  -0.40725279  *   1.38088844  *
    23       C         -4.22144806  *   3.18457768  *   2.19226772  *
    24       N         -4.72961298  *   4.20539680  *   2.38935245  *
    25       C          2.53532317  *   0.73352747  *  -0.35088742  *
    26       H          2.46918340  *   1.49189350  *   2.33673824  *
    27       H          1.35564731  *   2.58928729  *   1.41865320  *
    28       H          2.56030893  *   3.27570954  *   2.56999128  *
    29       H          5.04768268  *   2.96853643  *  -0.97286691  *
    30       H          5.22233754  *   1.48801704  *  -3.02859737  *
    31       H          2.16750743  *  -1.63824298  *  -2.68610613  *
    32       H          0.98095035  *  -1.38008421  *   0.04617883  *
    33       H          1.31666373  *  -3.65658823  *  -1.02739095  *
    34       H          0.23755809  *  -3.20597571  *  -2.35167215  *
    35       H         -1.37659037  *  -4.18342493  *  -0.93130938  *
    36       H         -0.42400370  *  -3.87280345  *   0.54418679  *
    37       H         -2.50680083  *  -0.54092863  *  -1.03500977  *
    38       H         -2.06720550  *  -1.86038846  *  -2.14363090  *
    39       H         -0.30224434  *   0.35113676  *  -1.00691912  *
    40       H         -0.27656737  *  -0.39748127  *  -2.59612267  *
    41       H         -0.51024682  *   0.49736191  *   1.83460793  *
    42       H         -1.60095471  *   2.69728016  *   2.27516068  *
    43       H         -5.47042982  *   0.90445324  *   1.59907149  *
    44       H         -4.37136383  *  -1.28649544  *   1.14212954  *
    45       H          1.77253724  *   0.48413937  *   0.36764482  *

                             CARTESIAN COORDINATES

   1    C        2.351861611     2.467949672     1.854574449
   2    O        3.358741107     2.675062840     0.870287527
   3    C        3.388473575     1.821607632    -0.177086342
   4    C        4.384228327     2.126540201    -1.119532849
   5    C        4.476350043     1.303951225    -2.242418234
   6    N        3.674839460     0.247470779    -2.456502699
   7    C        2.730836710    -0.051422868    -1.509324731
   8    N        2.038472825    -1.218817169    -1.770344795
   9    C        0.799930119    -1.534041310    -1.054297290
  10    C        0.449018233    -3.017714705    -1.284175488
  11    C       -0.764034986    -3.410716919    -0.414484749
  12    N       -1.641206033    -2.259068446    -0.129687437
  13    C       -1.723425745    -1.302735775    -1.240940282
  14    C       -0.366563151    -0.626737984    -1.518189051
  15    C       -1.713699995    -1.815617741     1.188882901
  16    O       -1.323178402    -2.514275015     2.100706011
  17    C       -2.381313617    -0.503362564     1.436999740
  18    C       -1.593818244     0.599088913     1.765780650
  19    C       -2.203062699     1.824688645     2.019094342
  20    C       -3.596582702     1.930707378     1.946434850
  21    C       -4.383678246     0.815834229     1.637107290
  22    C       -3.770361537    -0.407252790     1.380888443
  23    C       -4.221448058     3.184577679     2.192267721
  24    N       -4.729612980     4.205396801     2.389352452
  25    C        2.535323167     0.733527466    -0.350887421
  26    H        2.469183398     1.491893501     2.336738238
  27    H        1.355647312     2.589287287     1.418653202
  28    H        2.560308935     3.275709537     2.569991280
  29    H        5.047682684     2.968536427    -0.972866908
  30    H        5.222337539     1.488017044    -3.028597369
  31    H        2.167507425    -1.638242977    -2.686106126
  32    H        0.980950350    -1.380084210     0.046178831
  33    H        1.316663725    -3.656588226    -1.027390951
  34    H        0.237558091    -3.205975710    -2.351672154
  35    H       -1.376590375    -4.183424928    -0.931309382
  36    H       -0.424003697    -3.872803446     0.544186793
  37    H       -2.506800834    -0.540928630    -1.035009769
  38    H       -2.067205498    -1.860388459    -2.143630901
  39    H       -0.302244339     0.351136756    -1.006919116
  40    H       -0.276567371    -0.397481267    -2.596122671
  41    H       -0.510246821     0.497361908     1.834607925
  42    H       -1.600954713     2.697280163     2.275160681
  43    H       -5.470429817     0.904453236     1.599071492
  44    H       -4.371363831    -1.286495442     1.142129537
  45    H        1.772537240     0.484139369     0.367644815


           Empirical Formula: C19 H20 N4 O2  =    45 atoms



      MOLECULAR POINT GROUP   :   C1  


                  EIGENVALUES  
 -37.39690 -36.99050 -35.24014 -35.20991 -31.78827 -31.07483 -30.80488 -28.70097
 -28.02246 -27.84327 -27.03436 -26.83784 -26.07704 -25.11166 -24.33095 -23.42124
 -22.46621 -22.23478 -21.90577 -21.41689 -20.70783 -19.82536 -19.29524 -18.65634
 -18.25817 -17.82779 -17.19010 -17.02959 -16.73468 -16.34615 -16.25341 -15.97692
 -15.85575 -15.72256 -15.42180 -15.32750 -15.20341 -15.14800 -14.96014 -14.77712
 -14.64901 -14.38971 -14.10870 -14.02244 -13.88538 -13.65506 -13.55142 -13.48943
 -13.32856 -13.09518 -13.01467 -12.79667 -12.57892 -12.48205 -12.26223 -12.06198
 -11.13266 -10.97958 -10.83882 -10.57676 -10.52802  -9.89038  -9.86292  -8.86168
  -1.29000  -0.74685   0.02693   0.31457   0.56655   0.80413   0.88544   1.43787
   1.48209   1.76366   1.83120   2.38814   2.51678   2.82237   2.99477   3.07343
   3.35414   3.38420   3.42514   3.66566   3.79732   3.81130   3.91632   3.92349
   4.01721   4.06499   4.23413   4.32576   4.35002   4.48475   4.69726   4.73943
   4.79086   4.85741   4.94477   4.97507   5.02873   5.05399   5.08078   5.16128
   5.17984   5.23467   5.29294   5.31141   5.31473   5.45106   5.46576   5.61867
   5.66879   5.75020   5.77099   5.84077   5.92686   6.03787   6.37226   6.57414


              NET ATOMIC CHARGES AND DIPOLE CONTRIBUTIONS

  ATOM NO.   TYPE          CHARGE      No. of ELECS.   s-Pop       p-Pop       
    1          C          -0.200822        4.2008     1.08838     3.11244
    2          O          -0.304102        6.3041     1.86482     4.43929
    3          C           0.367330        3.6327     1.08760     2.54507
    4          C          -0.428207        4.4282     1.07011     3.35810
    5          C           0.174125        3.8259     1.09589     2.72998
    6          N          -0.530918        5.5309     1.75473     3.77618
    7          C           0.446266        3.5537     1.05490     2.49884
    8          N          -0.539600        5.5396     1.56046     3.97914
    9          C           0.110128        3.8899     1.06818     2.82169
   10          C          -0.330946        4.3309     1.07144     3.25950
   11          C          -0.075107        4.0751     1.06917     3.00594
   12          N          -0.478796        5.4788     1.60801     3.87078
   13          C          -0.068621        4.0686     1.06617     3.00245
   14          C          -0.364456        4.3645     1.07663     3.28783
   15          C           0.553039        3.4470     1.08380     2.36316
   16          O          -0.494873        6.4949     1.88174     4.61314
   17          C          -0.074602        4.0746     1.08125     2.99335
   18          C          -0.129440        4.1294     1.08197     3.04747
   19          C          -0.107440        4.1074     1.08564     3.02180
   20          C          -0.024882        4.0249     1.04248     2.98241
   21          C          -0.109638        4.1096     1.08686     3.02278
   22          C          -0.132692        4.1327     1.08433     3.04836
   23          C           0.099048        3.9010     1.10832     2.79263
   24          N          -0.221920        5.2219     1.83083     3.39109
   25          C          -0.502776        4.5028     1.06123     3.44154
   26          H           0.140436        0.8596     0.85956
   27          H           0.134216        0.8658     0.86578
   28          H           0.154769        0.8452     0.84523
   29          H           0.187206        0.8128     0.81279
   30          H           0.170789        0.8292     0.82921
   31          H           0.321806        0.6782     0.67819
   32          H           0.154211        0.8458     0.84579
   33          H           0.165375        0.8346     0.83463
   34          H           0.148871        0.8511     0.85113
   35          H           0.145828        0.8542     0.85417
   36          H           0.174484        0.8255     0.82552
   37          H           0.150006        0.8500     0.84999
   38          H           0.149932        0.8501     0.85007
   39          H           0.155806        0.8442     0.84419
   40          H           0.161988        0.8380     0.83801
   41          H           0.167264        0.8327     0.83274
   42          H           0.168137        0.8319     0.83186
   43          H           0.169441        0.8306     0.83056
   44          H           0.172847        0.8272     0.82715
   45          H           0.176487        0.8235     0.82351
 DIPOLE           X         Y         Z       TOTAL
 POINT-CHG.    -1.455    -2.168    -2.411     3.554
 HYBRID         0.175     0.108     0.221     0.302
 SUM           -1.280    -2.060    -2.190     3.268


          ATOMIC ORBITAL ELECTRON POPULATIONS

     Atom    s        px        py        pz   
    1  C   1.08838   0.99058   1.15722   0.96465
    2  O   1.86482   1.53105   1.53351   1.37472
    3  C   1.08760   0.89021   0.84051   0.81436
    4  C   1.07011   1.14196   1.16083   1.05530
    5  C   1.09589   0.91404   0.84580   0.97014
    6  N   1.75473   1.17133   1.27100   1.33386
    7  C   1.05490   0.83504   0.79640   0.86740
    8  N   1.56046   1.31578   1.32413   1.33924
    9  C   1.06818   0.82251   0.95515   1.04403
   10  C   1.07144   1.08982   1.04075   1.12893
   11  C   1.06917   0.95986   0.92669   1.11940
   12  N   1.60801   1.54124   1.21686   1.11268
   13  C   1.06617   1.02984   1.00685   0.96576
   14  C   1.07663   1.01384   1.09932   1.17467
   15  C   1.08380   0.75522   0.82601   0.78194
   16  O   1.88174   1.52771   1.58577   1.49966
   17  C   1.08125   0.99835   0.99549   0.99951
   18  C   1.08197   1.08265   0.97313   0.99169
   19  C   1.08564   0.99488   1.05073   0.97619
   20  C   1.04248   0.98702   0.94087   1.05451
   21  C   1.08686   1.08329   0.97197   0.96752
   22  C   1.08433   1.00361   1.05145   0.99331
   23  C   1.10832   0.93056   0.92687   0.93520
   24  N   1.83083   1.10854   1.19379   1.08876
   25  C   1.06123   1.20086   1.11734   1.12334
   26  H   0.85956
   27  H   0.86578
   28  H   0.84523
   29  H   0.81279
   30  H   0.82921
   31  H   0.67819
   32  H   0.84579
   33  H   0.83463
   34  H   0.85113
   35  H   0.85417
   36  H   0.82552
   37  H   0.84999
   38  H   0.85007
   39  H   0.84419
   40  H   0.83801
   41  H   0.83274
   42  H   0.83186
   43  H   0.83056
   44  H   0.82715
   45  H   0.82351

 **********************
 *                    *
 * JOB ENDED NORMALLY *
 *                    *
 **********************



 TOTAL JOB TIME:             7.17 SECONDS

 == MOPAC DONE ==
