 *******************************************************************************
 **                                                                           **
 **                              MOPAC v23.0.3                                **
 **                                                                           **
 *******************************************************************************
 **          Digital Object Identifier (DOI): 10.5281/zenodo.6511958          **
 **    Visit the DOI location for information on how to cite this program.    **
 *******************************************************************************

                              PM7 CALCULATION RESULTS

 *******************************************************************************
 *  CALCULATION DONE:                                Fri Jul 25 18:05:22 2025  *
 *  PM7        - The PM7 Hamiltonian to be used
 *  XYZ        - CARTESIAN COORDINATE SYSTEM TO BE USED
 *  T=         - A TIME OF 172800.0 SECONDS REQUESTED
 *  DUMP=N     - RESTART FILE WRITTEN EVERY 7200.0 SECONDS REQUESTED
 *******************************************************************************
PM7 XYZ

 Lipophilicity_1756 - geometry optimisation
   ATOM   CHEMICAL          X               Y               Z
  NUMBER   SYMBOL      (ANGSTROMS)     (ANGSTROMS)     (ANGSTROMS)

     1       C         -5.74109200  *  -1.19533600  *  -1.36955600  *
     2       C         -5.21133300  *   0.06767600  *  -0.68117900  *
     3       N         -6.25391600  *   0.65960400  *   0.16067400  *
     4       C         -7.32119700  *   1.45313900  *  -0.37807700  *
     5       O         -7.37223300  *   1.70460100  *  -1.61231900  *
     6       C         -8.40182200  *   1.95093000  *   0.51949200  *
     7       C         -3.97108800  *  -0.22441300  *   0.14376800  *
     8       C         -2.80180200  *   0.53046400  *  -0.05176300  *
     9       C         -1.66787000  *   0.30234800  *   0.73354800  *
    10       C         -1.67340900  *  -0.70205900  *   1.71840000  *
    11       N         -0.53308000  *  -0.94320300  *   2.56343800  *
    12       C          0.83690100  *  -0.77444000  *   2.16734200  *
    13       N          1.81566500  *  -0.84232300  *   3.11095800  *
    14       C          3.12576400  *  -0.69609000  *   2.78228300  *
    15       C          3.48777200  *  -0.46862300  *   1.45101000  *
    16       C          4.82341000  *  -0.28021400  *   1.07218900  *
    17       C          5.15003100  *  -0.03093700  *  -0.27534900  *
    18       C          4.11895100  *   0.01094700  *  -1.23535100  *
    19       C          2.78780500  *  -0.18593900  *  -0.85841300  *
    20       C          2.46700600  *  -0.41876100  *   0.48301000  *
    21       N          1.17210000  *  -0.57978600  *   0.86108100  *
    22       C          6.56080400  *   0.20320100  *  -0.67613100  *
    23       C          7.60137000  *  -0.56235400  *  -0.12095400  *
    24       C          8.92244100  *  -0.31158800  *  -0.50096700  *
    25       N          9.20105600  *   0.66867400  *  -1.39964200  *
    26       C          8.21824300  *   1.42404600  *  -1.95488500  *
    27       C          6.88287700  *   1.20533500  *  -1.60837500  *
    28       C         -2.85025700  *  -1.43315500  *   1.93608200  *
    29       C         -3.98793900  *  -1.19797500  *   1.15969400  *
    30       H         -6.55920900  *  -0.92614300  *  -2.06879400  *
    31       H         -6.14470900  *  -1.92104500  *  -0.62518900  *
    32       H         -4.92777800  *  -1.68778900  *  -1.95508400  *
    33       H         -4.94552700  *   0.79053300  *  -1.48217800  *
    34       H         -6.26026000  *   0.44655200  *   1.18531400  *
    35       H         -8.93636700  *   2.80335200  *   0.04783900  *
    36       H         -9.12592400  *   1.13817700  *   0.71563300  *
    37       H         -7.96787700  *   2.28970500  *   1.48308700  *
    38       H         -2.77060600  *   1.31230000  *  -0.80092900  *
    39       H         -0.80489500  *   0.93799500  *   0.58970700  *
    40       H         -0.70709700  *  -1.33193700  *   3.51649000  *
    41       H          3.87700800  *  -0.74917200  *   3.56060900  *
    42       H          5.60078100  *  -0.29638900  *   1.82868600  *
    43       H          4.34339100  *   0.18818500  *  -2.27951100  *
    44       H          2.00714400  *  -0.14788000  *  -1.60912900  *
    45       H          7.39479300  *  -1.35527700  *   0.58904400  *
    46       H          9.72786900  *  -0.89823000  *  -0.07735700  *
    47       H          8.47331200  *   2.19983800  *  -2.66134000  *
    48       H          6.11362800  *   1.82842900  *  -2.04495400  *
    49       H         -2.88757700  *  -2.18649900  *   2.71504900  *
    50       H         -4.88525700  *  -1.76847400  *   1.36304300  *



          CARTESIAN COORDINATES 

    NO.       ATOM           X           Y           Z

     1         C         -5.7411     -1.1953     -1.3696
     2         C         -5.2113      0.0677     -0.6812
     3         N         -6.2539      0.6596      0.1607
     4         C         -7.3212      1.4531     -0.3781
     5         O         -7.3722      1.7046     -1.6123
     6         C         -8.4018      1.9509      0.5195
     7         C         -3.9711     -0.2244      0.1438
     8         C         -2.8018      0.5305     -0.0518
     9         C         -1.6679      0.3023      0.7335
    10         C         -1.6734     -0.7021      1.7184
    11         N         -0.5331     -0.9432      2.5634
    12         C          0.8369     -0.7744      2.1673
    13         N          1.8157     -0.8423      3.1110
    14         C          3.1258     -0.6961      2.7823
    15         C          3.4878     -0.4686      1.4510
    16         C          4.8234     -0.2802      1.0722
    17         C          5.1500     -0.0309     -0.2753
    18         C          4.1190      0.0109     -1.2354
    19         C          2.7878     -0.1859     -0.8584
    20         C          2.4670     -0.4188      0.4830
    21         N          1.1721     -0.5798      0.8611
    22         C          6.5608      0.2032     -0.6761
    23         C          7.6014     -0.5624     -0.1210
    24         C          8.9224     -0.3116     -0.5010
    25         N          9.2011      0.6687     -1.3996
    26         C          8.2182      1.4240     -1.9549
    27         C          6.8829      1.2053     -1.6084
    28         C         -2.8503     -1.4332      1.9361
    29         C         -3.9879     -1.1980      1.1597
    30         H         -6.5592     -0.9261     -2.0688
    31         H         -6.1447     -1.9210     -0.6252
    32         H         -4.9278     -1.6878     -1.9551
    33         H         -4.9455      0.7905     -1.4822
    34         H         -6.2603      0.4466      1.1853
    35         H         -8.9364      2.8034      0.0478
    36         H         -9.1259      1.1382      0.7156
    37         H         -7.9679      2.2897      1.4831
    38         H         -2.7706      1.3123     -0.8009
    39         H         -0.8049      0.9380      0.5897
    40         H         -0.7071     -1.3319      3.5165
    41         H          3.8770     -0.7492      3.5606
    42         H          5.6008     -0.2964      1.8287
    43         H          4.3434      0.1882     -2.2795
    44         H          2.0071     -0.1479     -1.6091
    45         H          7.3948     -1.3553      0.5890
    46         H          9.7279     -0.8982     -0.0774
    47         H          8.4733      2.1998     -2.6613
    48         H          6.1136      1.8284     -2.0450
    49         H         -2.8876     -2.1865      2.7150
    50         H         -4.8853     -1.7685      1.3630

 General Reference for PM7:
 "Optimization of Parameters for Semiempirical Methods VI: More Modifications to the 
 NDDO Approximations and Re-optimization of Parameters", J. J. P. Stewart, J. Mol. Mod., 1:32, 19 (2013)
 https://link.springer.com/article/10.1007/s00894-012-1667-x

           Empirical Formula: C23 H21 N5 O  =    50 atoms



      MOLECULAR POINT GROUP   :   C1  


      RHF CALCULATION, NO. OF DOUBLY OCCUPIED LEVELS = 72


          Geometry optimization using L-BFGS
 CYCLE:     1 TIME:   0.070 TIME LEFT:  2.00D  GRAD.:   218.986 HEAT:  77.13719
 CYCLE:     2 TIME:   0.035 TIME LEFT:  2.00D  GRAD.:   214.247 HEAT:  76.66283
 CYCLE:     3 TIME:   0.039 TIME LEFT:  2.00D  GRAD.:    61.069 HEAT:  64.13879
 CYCLE:     4 TIME:   0.043 TIME LEFT:  2.00D  GRAD.:   214.393 HEAT:  76.65749
 CYCLE:     5 TIME:   0.039 TIME LEFT:  2.00D  GRAD.:    61.163 HEAT:  64.13985
 CYCLE:     6 TIME:   0.035 TIME LEFT:  2.00D  GRAD.:    42.852 HEAT:  62.94187
 CYCLE:     7 TIME:   0.039 TIME LEFT:  2.00D  GRAD.:    35.057 HEAT:  61.22588
 CYCLE:     8 TIME:   0.039 TIME LEFT:  2.00D  GRAD.:    58.205 HEAT:  60.65119
 CYCLE:     9 TIME:   0.035 TIME LEFT:  2.00D  GRAD.:    26.572 HEAT:  60.00675
 CYCLE:    10 TIME:   0.039 TIME LEFT:  2.00D  GRAD.:    19.599 HEAT:  59.63383
 CYCLE:    11 TIME:   0.035 TIME LEFT:  2.00D  GRAD.:    20.987 HEAT:  59.37348
 CYCLE:    12 TIME:   0.039 TIME LEFT:  2.00D  GRAD.:    21.234 HEAT:  58.86158
 CYCLE:    13 TIME:   0.039 TIME LEFT:  2.00D  GRAD.:    61.366 HEAT:  59.12948
 CYCLE:    14 TIME:   0.035 TIME LEFT:  2.00D  GRAD.:    14.430 HEAT:  58.38908
 CYCLE:    15 TIME:   0.035 TIME LEFT:  2.00D  GRAD.:     9.911 HEAT:  58.27713
 CYCLE:    16 TIME:   0.035 TIME LEFT:  2.00D  GRAD.:    11.842 HEAT:  58.09238
 CYCLE:    17 TIME:   0.035 TIME LEFT:  2.00D  GRAD.:    22.607 HEAT:  58.01055
 CYCLE:    18 TIME:   0.035 TIME LEFT:  2.00D  GRAD.:     9.725 HEAT:  57.89561
 CYCLE:    19 TIME:   0.055 TIME LEFT:  2.00D  GRAD.:     7.071 HEAT:  57.82664
 CYCLE:    20 TIME:   0.039 TIME LEFT:  2.00D  GRAD.:     8.113 HEAT:  57.77557
 CYCLE:    21 TIME:   0.039 TIME LEFT:  2.00D  GRAD.:    12.397 HEAT:  57.70344
 CYCLE:    22 TIME:   0.035 TIME LEFT:  2.00D  GRAD.:    10.169 HEAT:  57.66916
 CYCLE:    23 TIME:   0.035 TIME LEFT:  2.00D  GRAD.:     4.183 HEAT:  57.63971
 CYCLE:    24 TIME:   0.035 TIME LEFT:  2.00D  GRAD.:     3.884 HEAT:  57.62589
 CYCLE:    25 TIME:   0.035 TIME LEFT:  2.00D  GRAD.:     6.018 HEAT:  57.60630
 CYCLE:    26 TIME:   0.035 TIME LEFT:  2.00D  GRAD.:     7.149 HEAT:  57.58967
 CYCLE:    27 TIME:   0.035 TIME LEFT:  2.00D  GRAD.:     3.440 HEAT:  57.57536
 CYCLE:    28 TIME:   0.035 TIME LEFT:  2.00D  GRAD.:     3.201 HEAT:  57.56615
 CYCLE:    29 TIME:   0.035 TIME LEFT:  2.00D  GRAD.:     3.681 HEAT:  57.55675
 CYCLE:    30 TIME:   0.035 TIME LEFT:  2.00D  GRAD.:     7.431 HEAT:  57.54466
 CYCLE:    31 TIME:   0.035 TIME LEFT:  2.00D  GRAD.:     3.357 HEAT:  57.53049
 CYCLE:    32 TIME:   0.035 TIME LEFT:  2.00D  GRAD.:     3.018 HEAT:  57.52203
 CYCLE:    33 TIME:   0.039 TIME LEFT:  2.00D  GRAD.:     3.854 HEAT:  57.50979
 CYCLE:    34 TIME:   0.035 TIME LEFT:  2.00D  GRAD.:     5.911 HEAT:  57.49557
 CYCLE:    35 TIME:   0.035 TIME LEFT:  2.00D  GRAD.:     3.862 HEAT:  57.48281
 CYCLE:    36 TIME:   0.035 TIME LEFT:  2.00D  GRAD.:     2.690 HEAT:  57.47367
 CYCLE:    37 TIME:   0.035 TIME LEFT:  2.00D  GRAD.:     3.558 HEAT:  57.46236
 CYCLE:    38 TIME:   0.035 TIME LEFT:  2.00D  GRAD.:     3.879 HEAT:  57.45381
 CYCLE:    39 TIME:   0.035 TIME LEFT:  2.00D  GRAD.:     2.838 HEAT:  57.44212
 CYCLE:    40 TIME:   0.039 TIME LEFT:  2.00D  GRAD.:     6.437 HEAT:  57.43864
 CYCLE:    41 TIME:   0.035 TIME LEFT:  2.00D  GRAD.:     2.920 HEAT:  57.42800
 CYCLE:    42 TIME:   0.035 TIME LEFT:  2.00D  GRAD.:     2.849 HEAT:  57.42033
 CYCLE:    43 TIME:   0.035 TIME LEFT:  2.00D  GRAD.:     3.155 HEAT:  57.40747
 CYCLE:    44 TIME:   0.039 TIME LEFT:  2.00D  GRAD.:     5.874 HEAT:  57.39193
 CYCLE:    45 TIME:   0.039 TIME LEFT:  2.00D  GRAD.:     4.794 HEAT:  57.37751
 CYCLE:    46 TIME:   0.035 TIME LEFT:  2.00D  GRAD.:     3.795 HEAT:  57.36625
 CYCLE:    47 TIME:   0.035 TIME LEFT:  2.00D  GRAD.:     3.829 HEAT:  57.35009
 CYCLE:    48 TIME:   0.035 TIME LEFT:  2.00D  GRAD.:     4.963 HEAT:  57.33970
 CYCLE:    49 TIME:   0.035 TIME LEFT:  2.00D  GRAD.:     3.081 HEAT:  57.32654
 CYCLE:    50 TIME:   0.039 TIME LEFT:  2.00D  GRAD.:     3.571 HEAT:  57.31274
 CYCLE:    51 TIME:   0.035 TIME LEFT:  2.00D  GRAD.:     4.999 HEAT:  57.30446
 CYCLE:    52 TIME:   0.035 TIME LEFT:  2.00D  GRAD.:     3.702 HEAT:  57.29495
 CYCLE:    53 TIME:   0.039 TIME LEFT:  2.00D  GRAD.:     3.754 HEAT:  57.27767
 CYCLE:    54 TIME:   0.035 TIME LEFT:  2.00D  GRAD.:     4.971 HEAT:  57.26663
 CYCLE:    55 TIME:   0.035 TIME LEFT:  2.00D  GRAD.:     4.183 HEAT:  57.25355
 CYCLE:    56 TIME:   0.039 TIME LEFT:  2.00D  GRAD.:     3.995 HEAT:  57.23646
 CYCLE:    57 TIME:   0.039 TIME LEFT:  2.00D  GRAD.:     8.623 HEAT:  57.22433
 CYCLE:    58 TIME:   0.035 TIME LEFT:  2.00D  GRAD.:     3.960 HEAT:  57.20503
 CYCLE:    59 TIME:   0.035 TIME LEFT:  2.00D  GRAD.:     3.743 HEAT:  57.19346
 CYCLE:    60 TIME:   0.035 TIME LEFT:  2.00D  GRAD.:     3.708 HEAT:  57.18207
 CYCLE:    61 TIME:   0.039 TIME LEFT:  2.00D  GRAD.:     9.298 HEAT:  57.16871
 CYCLE:    62 TIME:   0.039 TIME LEFT:  2.00D  GRAD.:     3.520 HEAT:  57.14659
 CYCLE:    63 TIME:   0.035 TIME LEFT:  2.00D  GRAD.:     3.192 HEAT:  57.13726
 CYCLE:    64 TIME:   0.039 TIME LEFT:  2.00D  GRAD.:     4.112 HEAT:  57.12141
 CYCLE:    65 TIME:   0.039 TIME LEFT:  2.00D  GRAD.:     6.623 HEAT:  57.10146
 CYCLE:    66 TIME:   0.039 TIME LEFT:  2.00D  GRAD.:     5.421 HEAT:  57.07958
 CYCLE:    67 TIME:   0.039 TIME LEFT:  2.00D  GRAD.:     7.510 HEAT:  57.05789
 CYCLE:    68 TIME:   0.039 TIME LEFT:  2.00D  GRAD.:     5.065 HEAT:  57.02909
 CYCLE:    69 TIME:   0.039 TIME LEFT:  2.00D  GRAD.:     4.806 HEAT:  57.00805
 CYCLE:    70 TIME:   0.035 TIME LEFT:  2.00D  GRAD.:     9.156 HEAT:  56.98960
 CYCLE:    71 TIME:   0.039 TIME LEFT:  2.00D  GRAD.:     5.469 HEAT:  56.96808
 CYCLE:    72 TIME:   0.035 TIME LEFT:  2.00D  GRAD.:     5.092 HEAT:  56.95641
 CYCLE:    73 TIME:   0.035 TIME LEFT:  2.00D  GRAD.:     3.278 HEAT:  56.94401
 CYCLE:    74 TIME:   0.043 TIME LEFT:  2.00D  GRAD.:     4.704 HEAT:  56.93223
 CYCLE:    75 TIME:   0.035 TIME LEFT:  2.00D  GRAD.:     4.055 HEAT:  56.91764
 CYCLE:    76 TIME:   0.035 TIME LEFT:  2.00D  GRAD.:     6.852 HEAT:  56.90232
 CYCLE:    77 TIME:   0.039 TIME LEFT:  2.00D  GRAD.:     3.977 HEAT:  56.88429
 CYCLE:    78 TIME:   0.043 TIME LEFT:  2.00D  GRAD.:     6.266 HEAT:  56.86757
 CYCLE:    79 TIME:   0.035 TIME LEFT:  2.00D  GRAD.:     5.538 HEAT:  56.85031
 CYCLE:    80 TIME:   0.035 TIME LEFT:  2.00D  GRAD.:     3.453 HEAT:  56.82774
 CYCLE:    81 TIME:   0.039 TIME LEFT:  2.00D  GRAD.:     4.932 HEAT:  56.81239
 CYCLE:    82 TIME:   0.035 TIME LEFT:  2.00D  GRAD.:     4.185 HEAT:  56.80252
 CYCLE:    83 TIME:   0.039 TIME LEFT:  2.00D  GRAD.:     3.556 HEAT:  56.79185
 CYCLE:    84 TIME:   0.035 TIME LEFT:  2.00D  GRAD.:     4.478 HEAT:  56.77144
 CYCLE:    85 TIME:   0.039 TIME LEFT:  2.00D  GRAD.:     7.349 HEAT:  56.76330
 CYCLE:    86 TIME:   0.039 TIME LEFT:  2.00D  GRAD.:     3.814 HEAT:  56.75323
 CYCLE:    87 TIME:   0.035 TIME LEFT:  2.00D  GRAD.:     3.229 HEAT:  56.74526
 CYCLE:    88 TIME:   0.039 TIME LEFT:  2.00D  GRAD.:     2.774 HEAT:  56.73666
 CYCLE:    89 TIME:   0.039 TIME LEFT:  2.00D  GRAD.:     4.206 HEAT:  56.72737
 CYCLE:    90 TIME:   0.039 TIME LEFT:  2.00D  GRAD.:     9.139 HEAT:  56.72751
 CYCLE:    91 TIME:   0.039 TIME LEFT:  2.00D  GRAD.:     3.029 HEAT:  56.70887
 CYCLE:    92 TIME:   0.043 TIME LEFT:  2.00D  GRAD.:     3.769 HEAT:  56.70212
 CYCLE:    93 TIME:   0.035 TIME LEFT:  2.00D  GRAD.:     2.793 HEAT:  56.69554
 CYCLE:    94 TIME:   0.035 TIME LEFT:  2.00D  GRAD.:     2.495 HEAT:  56.68807
 CYCLE:    95 TIME:   0.035 TIME LEFT:  2.00D  GRAD.:     2.637 HEAT:  56.67972
 CYCLE:    96 TIME:   0.043 TIME LEFT:  2.00D  GRAD.:     2.947 HEAT:  56.67241
 CYCLE:    97 TIME:   0.035 TIME LEFT:  2.00D  GRAD.:     4.344 HEAT:  56.66529
 CYCLE:    98 TIME:   0.035 TIME LEFT:  2.00D  GRAD.:     1.995 HEAT:  56.65986
 CYCLE:    99 TIME:   0.039 TIME LEFT:  2.00D  GRAD.:     1.888 HEAT:  56.65575
 CYCLE:   100 TIME:   0.039 TIME LEFT:  2.00D  GRAD.:     3.156 HEAT:  56.64966
 CYCLE:   101 TIME:   0.035 TIME LEFT:  2.00D  GRAD.:     3.513 HEAT:  56.64430
 CYCLE:   102 TIME:   0.039 TIME LEFT:  2.00D  GRAD.:     2.245 HEAT:  56.63994
 CYCLE:   103 TIME:   0.035 TIME LEFT:  2.00D  GRAD.:     1.820 HEAT:  56.63607
 CYCLE:   104 TIME:   0.043 TIME LEFT:  2.00D  GRAD.:     3.255 HEAT:  56.63023
 CYCLE:   105 TIME:   0.035 TIME LEFT:  2.00D  GRAD.:     2.636 HEAT:  56.62472
 CYCLE:   106 TIME:   0.035 TIME LEFT:  2.00D  GRAD.:     4.060 HEAT:  56.62180
 CYCLE:   107 TIME:   0.035 TIME LEFT:  2.00D  GRAD.:     2.314 HEAT:  56.61633
 CYCLE:   108 TIME:   0.043 TIME LEFT:  2.00D  GRAD.:     3.527 HEAT:  56.61194
 CYCLE:   109 TIME:   0.035 TIME LEFT:  2.00D  GRAD.:     2.297 HEAT:  56.60786
 CYCLE:   110 TIME:   0.035 TIME LEFT:  2.00D  GRAD.:     2.432 HEAT:  56.60259
 CYCLE:   111 TIME:   0.039 TIME LEFT:  2.00D  GRAD.:     3.153 HEAT:  56.59690
 CYCLE:   112 TIME:   0.039 TIME LEFT:  2.00D  GRAD.:     4.862 HEAT:  56.59031
 CYCLE:   113 TIME:   0.035 TIME LEFT:  2.00D  GRAD.:     3.130 HEAT:  56.58166
 CYCLE:   114 TIME:   0.043 TIME LEFT:  2.00D  GRAD.:     3.858 HEAT:  56.57360
 CYCLE:   115 TIME:   0.039 TIME LEFT:  2.00D  GRAD.:     3.537 HEAT:  56.56561
 CYCLE:   116 TIME:   0.035 TIME LEFT:  2.00D  GRAD.:     4.173 HEAT:  56.56048
 CYCLE:   117 TIME:   0.035 TIME LEFT:  2.00D  GRAD.:     2.249 HEAT:  56.55401
 CYCLE:   118 TIME:   0.043 TIME LEFT:  2.00D  GRAD.:     3.671 HEAT:  56.54468
 CYCLE:   119 TIME:   0.035 TIME LEFT:  2.00D  GRAD.:     2.905 HEAT:  56.53778
 CYCLE:   120 TIME:   0.039 TIME LEFT:  2.00D  GRAD.:     3.357 HEAT:  56.52220
 CYCLE:   121 TIME:   0.039 TIME LEFT:  2.00D  GRAD.:     5.559 HEAT:  56.51616
 CYCLE:   122 TIME:   0.035 TIME LEFT:  2.00D  GRAD.:     2.692 HEAT:  56.50747
 CYCLE:   123 TIME:   0.035 TIME LEFT:  2.00D  GRAD.:     2.556 HEAT:  56.50161
 CYCLE:   124 TIME:   0.039 TIME LEFT:  2.00D  GRAD.:     2.735 HEAT:  56.49833
 CYCLE:   125 TIME:   0.039 TIME LEFT:  2.00D  GRAD.:     4.545 HEAT:  56.49085
 CYCLE:   126 TIME:   0.039 TIME LEFT:  2.00D  GRAD.:     3.104 HEAT:  56.48517
 CYCLE:   127 TIME:   0.035 TIME LEFT:  2.00D  GRAD.:     2.097 HEAT:  56.48126
 CYCLE:   128 TIME:   0.035 TIME LEFT:  2.00D  GRAD.:     1.721 HEAT:  56.47803
 CYCLE:   129 TIME:   0.039 TIME LEFT:  2.00D  GRAD.:     2.362 HEAT:  56.47318
 CYCLE:   130 TIME:   0.039 TIME LEFT:  2.00D  GRAD.:     2.139 HEAT:  56.46813
 CYCLE:   131 TIME:   0.035 TIME LEFT:  2.00D  GRAD.:     2.481 HEAT:  56.46427
 CYCLE:   132 TIME:   0.039 TIME LEFT:  2.00D  GRAD.:     2.031 HEAT:  56.45977
 CYCLE:   133 TIME:   0.039 TIME LEFT:  2.00D  GRAD.:     2.639 HEAT:  56.45651
 CYCLE:   134 TIME:   0.039 TIME LEFT:  2.00D  GRAD.:     4.070 HEAT:  56.45392
 CYCLE:   135 TIME:   0.035 TIME LEFT:  2.00D  GRAD.:     1.403 HEAT:  56.45076
 CYCLE:   136 TIME:   0.039 TIME LEFT:  2.00D  GRAD.:     1.197 HEAT:  56.45020
 CYCLE:   137 TIME:   0.039 TIME LEFT:  2.00D  GRAD.:     1.645 HEAT:  56.44750
 CYCLE:   138 TIME:   0.039 TIME LEFT:  2.00D  GRAD.:     2.535 HEAT:  56.44406
 CYCLE:   139 TIME:   0.039 TIME LEFT:  2.00D  GRAD.:     2.230 HEAT:  56.44122
 CYCLE:   140 TIME:   0.035 TIME LEFT:  2.00D  GRAD.:     1.524 HEAT:  56.43877
 CYCLE:   141 TIME:   0.039 TIME LEFT:  2.00D  GRAD.:     1.684 HEAT:  56.43605
 CYCLE:   142 TIME:   0.039 TIME LEFT:  2.00D  GRAD.:     2.939 HEAT:  56.43439
 CYCLE:   143 TIME:   0.035 TIME LEFT:  2.00D  GRAD.:     1.385 HEAT:  56.43229
 CYCLE:   144 TIME:   0.035 TIME LEFT:  2.00D  GRAD.:     1.225 HEAT:  56.43071
 CYCLE:   145 TIME:   0.039 TIME LEFT:  2.00D  GRAD.:     1.325 HEAT:  56.42941
 CYCLE:   146 TIME:   0.035 TIME LEFT:  2.00D  GRAD.:     3.378 HEAT:  56.42873
 CYCLE:   147 TIME:   0.035 TIME LEFT:  2.00D  GRAD.:     1.088 HEAT:  56.42644
 CYCLE:   148 TIME:   0.039 TIME LEFT:  2.00D  GRAD.:     0.960 HEAT:  56.42564

 -------------------------------------------------------------------------------
 PM7 XYZ

 Lipophilicity_1756 - geometry optimisation


     HERBERTS TEST WAS SATISFIED IN BFGS                      
     SCF FIELD WAS ACHIEVED                                   


                              PM7 CALCULATION
                                                       MOPAC v23.0.3 Linux
                                                       Fri Jul 25 18:05:28 2025




          FINAL HEAT OF FORMATION =         56.42564 KCAL/MOL =     236.08486 KJ/MOL


          COSMO AREA              =        415.85 SQUARE ANGSTROMS
          COSMO VOLUME            =        461.64 CUBIC ANGSTROMS

          GRADIENT NORM           =          0.95963          =       0.13571 PER ATOM
          IONIZATION POTENTIAL    =          8.597151 EV
          HOMO LUMO ENERGIES (EV) =         -8.597 -1.167
          NO. OF FILLED LEVELS    =         72
          MOLECULAR WEIGHT        =        383.4518         POINT GROUP:  C1  

          MOLECULAR DIMENSIONS (Angstroms)

            Atom       Atom       Distance
            H    46    H    35    18.76891
            H    49    H    47     8.00304
            H    41    H    30     6.53404


          SCF CALCULATIONS        =        149

          WALL-CLOCK TIME         =      5.602 SECONDS
          COMPUTATION TIME        =          1 MINUTE AND 51.708 SECONDS




   ATOM   CHEMICAL          X               Y               Z
  NUMBER   SYMBOL      (ANGSTROMS)     (ANGSTROMS)     (ANGSTROMS)

     1       C         -5.70703422  *  -1.59378916  *  -1.28779797  *
     2       C         -5.33247879  *  -0.20982859  *  -0.73172287  *
     3       N         -6.43646134  *   0.31809189  *   0.08381821  *
     4       C         -7.01832174  *   1.53569080  *  -0.21868195  *
     5       O         -6.65943083  *   2.17613860  *  -1.18536300  *
     6       C         -8.11220331  *   1.98596472  *   0.71102738  *
     7       C         -4.07163177  *  -0.30530567  *   0.09974195  *
     8       C         -2.93153882  *   0.38864689  *  -0.30624015  *
     9       C         -1.74997258  *   0.30330834  *   0.42289878  *
    10       C         -1.71053927  *  -0.48733573  *   1.57686280  *
    11       N         -0.56353868  *  -0.60109892  *   2.39816822  *
    12       C          0.74295643  *  -0.49871315  *   1.97982350  *
    13       N          1.66496809  *  -0.71559611  *   3.01891449  *
    14       C          2.94434170  *  -0.62650248  *   2.72569049  *
    15       C          3.40704336  *  -0.33220082  *   1.40366583  *
    16       C          4.77204588  *  -0.22940586  *   1.05975907  *
    17       C          5.13148725  *   0.05956726  *  -0.23663613  *
    18       C          4.13599814  *   0.23838158  *  -1.23748993  *
    19       C          2.80515891  *   0.14010968  *  -0.93328305  *
    20       C          2.41238474  *  -0.14063742  *   0.40920967  *
    21       N          1.07760635  *  -0.22043403  *   0.70773029  *
    22       C          6.54469646  *   0.18862068  *  -0.60531090  *
    23       C          7.44134532  *  -0.85229524  *  -0.35051370  *
    24       C          8.78159452  *  -0.68384042  *  -0.71710395  *
    25       N          9.24105365  *   0.43843170  *  -1.30181433  *
    26       C          8.37181342  *   1.43793618  *  -1.54301080  *
    27       C          7.01441700  *   1.35643761  *  -1.21232853  *
    28       C         -2.86057826  *  -1.17555527  *   2.00309630  *
    29       C         -4.03010483  *  -1.08084955  *   1.25970126  *
    30       H         -6.60489949  *  -1.53358286  *  -1.91481893  *
    31       H         -5.90305399  *  -2.32231313  *  -0.49541576  *
    32       H         -4.89410439  *  -1.99177844  *  -1.90711018  *
    33       H         -5.17178576  *   0.49624841  *  -1.60044018  *
    34       H         -6.69056207  *  -0.20324775  *   0.90185105  *
    35       H         -8.75092936  *   2.72791207  *   0.20307909  *
    36       H         -8.76044266  *   1.16927675  *   1.04693095  *
    37       H         -7.69162533  *   2.48231532  *   1.59726645  *
    38       H         -2.96034201  *   1.01103146  *  -1.20234914  *
    39       H         -0.86369647  *   0.84831986  *   0.08800257  *
    40       H         -0.70543977  *  -0.90581972  *   3.36388495  *
    41       H          3.65799731  *  -0.79153440  *   3.54688660  *
    42       H          5.52825670  *  -0.37487689  *   1.83229721  *
    43       H          4.45916004  *   0.44843855  *  -2.25932837  *
    44       H          2.02534158  *   0.26624351  *  -1.68543180  *
    45       H          7.10554348  *  -1.77576158  *   0.11273601  *
    46       H          9.52777485  *  -1.46778042  *  -0.54326946  *
    47       H          8.79568334  *   2.33008682  *  -2.01885777  *
    48       H          6.34414227  *   2.18722120  *  -1.41413642  *
    49       H         -2.83767828  *  -1.78938651  *   2.89979590  *
    50       H         -4.91444581  *  -1.62492119  *   1.58567939  *

                             CARTESIAN COORDINATES

   1    C       -5.707034221    -1.593789158    -1.287797970
   2    C       -5.332478786    -0.209828588    -0.731722872
   3    N       -6.436461338     0.318091892     0.083818214
   4    C       -7.018321740     1.535690796    -0.218681952
   5    O       -6.659430828     2.176138595    -1.185363001
   6    C       -8.112203315     1.985964719     0.711027384
   7    C       -4.071631768    -0.305305667     0.099741952
   8    C       -2.931538823     0.388646888    -0.306240147
   9    C       -1.749972579     0.303308344     0.422898783
  10    C       -1.710539268    -0.487335726     1.576862800
  11    N       -0.563538680    -0.601098920     2.398168224
  12    C        0.742956435    -0.498713147     1.979823496
  13    N        1.664968085    -0.715596106     3.018914487
  14    C        2.944341700    -0.626502484     2.725690486
  15    C        3.407043360    -0.332200824     1.403665826
  16    C        4.772045879    -0.229405862     1.059759068
  17    C        5.131487249     0.059567263    -0.236636126
  18    C        4.135998145     0.238381580    -1.237489928
  19    C        2.805158907     0.140109684    -0.933283048
  20    C        2.412384740    -0.140637422     0.409209670
  21    N        1.077606348    -0.220434026     0.707730291
  22    C        6.544696457     0.188620677    -0.605310896
  23    C        7.441345325    -0.852295243    -0.350513702
  24    C        8.781594518    -0.683840418    -0.717103947
  25    N        9.241053646     0.438431702    -1.301814328
  26    C        8.371813425     1.437936175    -1.543010803
  27    C        7.014416998     1.356437612    -1.212328526
  28    C       -2.860578259    -1.175555270     2.003096301
  29    C       -4.030104834    -1.080849550     1.259701255
  30    H       -6.604899486    -1.533582862    -1.914818932
  31    H       -5.903053990    -2.322313130    -0.495415763
  32    H       -4.894104393    -1.991778441    -1.907110176
  33    H       -5.171785764     0.496248411    -1.600440179
  34    H       -6.690562073    -0.203247752     0.901851046
  35    H       -8.750929364     2.727912065     0.203079091
  36    H       -8.760442663     1.169276747     1.046930947
  37    H       -7.691625332     2.482315322     1.597266450
  38    H       -2.960342009     1.011031462    -1.202349139
  39    H       -0.863696472     0.848319864     0.088002572
  40    H       -0.705439770    -0.905819717     3.363884945
  41    H        3.657997313    -0.791534402     3.546886601
  42    H        5.528256697    -0.374876889     1.832297208
  43    H        4.459160043     0.448438551    -2.259328369
  44    H        2.025341584     0.266243508    -1.685431798
  45    H        7.105543484    -1.775761580     0.112736006
  46    H        9.527774852    -1.467780424    -0.543269458
  47    H        8.795683344     2.330086817    -2.018857773
  48    H        6.344142269     2.187221202    -1.414136421
  49    H       -2.837678285    -1.789386511     2.899795901
  50    H       -4.914445807    -1.624921186     1.585679389


           Empirical Formula: C23 H21 N5 O  =    50 atoms



      MOLECULAR POINT GROUP   :   C1  


                  EIGENVALUES  
 -38.35844 -36.78186 -36.47065 -35.90210 -34.34606 -31.03436 -30.68933 -30.01502
 -29.00356 -27.90988 -27.12197 -26.52726 -26.36013 -26.06597 -25.89607 -25.08791
 -23.67494 -23.38474 -22.42993 -22.09019 -21.72395 -21.61121 -20.95838 -20.53294
 -20.01984 -19.22008 -18.86087 -18.25201 -17.51197 -17.20567 -16.85576 -16.66661
 -16.48107 -16.33900 -16.08149 -16.01523 -15.86888 -15.52198 -15.34828 -15.17457
 -14.97006 -14.82364 -14.74235 -14.64599 -14.49655 -14.43277 -14.29332 -14.10020
 -13.97547 -13.68490 -13.62495 -13.46260 -13.26898 -12.99001 -12.93140 -12.71690
 -12.63103 -12.39951 -12.32852 -12.03934 -11.89694 -11.54983 -10.82509 -10.46602
 -10.43756 -10.36041 -10.30637 -10.28895 -10.06916  -9.76549  -9.64158  -8.59715
  -1.16736  -0.84708  -0.30633  -0.28883   0.03554   0.12761   0.36591   1.24560
   1.32685   1.44325   2.02785   2.18588   2.34124   2.48271   2.53404   2.85070
   3.15845   3.22598   3.54777   3.58549   3.65959   3.78582   3.86119   3.92609
   3.98378   4.15995   4.21978   4.32780   4.36715   4.42581   4.46000   4.60149
   4.68529   4.75210   4.79461   4.86691   4.96726   4.99801   5.02638   5.09983
   5.11606   5.13474   5.14959   5.37856   5.38624   5.41006   5.41766   5.48214
   5.59942   5.62020   5.62818   5.67169   5.71734   5.76044   5.76070   5.78394
   5.91744   5.96723   6.04720   6.16390   6.18551   6.30248   6.44028   6.67882
   6.74826


              NET ATOMIC CHARGES AND DIPOLE CONTRIBUTIONS

  ATOM NO.   TYPE          CHARGE      No. of ELECS.   s-Pop       p-Pop       
    1          C          -0.472120        4.4721     1.06042     3.41170
    2          C           0.108444        3.8916     1.06276     2.82880
    3          N          -0.626022        5.6260     1.56582     4.06020
    4          C           0.614908        3.3851     1.07322     2.31187
    5          O          -0.539909        6.5399     1.87988     4.66003
    6          C          -0.530385        4.5304     1.06321     3.46718
    7          C          -0.080661        4.0807     1.07597     3.00469
    8          C          -0.108810        4.1088     1.08667     3.02214
    9          C          -0.178501        4.1785     1.08514     3.09337
   10          C           0.206148        3.7939     1.05425     2.73960
   11          N          -0.461597        5.4616     1.52264     3.93896
   12          C           0.512965        3.4870     1.04830     2.43874
   13          N          -0.489121        5.4891     1.75771     3.73141
   14          C           0.166996        3.8330     1.10473     2.72827
   15          C          -0.246742        4.2467     1.05813     3.18861
   16          C          -0.067718        4.0677     1.08416     2.98356
   17          C          -0.088553        4.0886     1.05823     3.03032
   18          C          -0.080068        4.0801     1.08993     2.99014
   19          C          -0.184930        4.1849     1.08333     3.10160
   20          C           0.268821        3.7312     1.06645     2.66473
   21          N          -0.529628        5.5296     1.75561     3.77402
   22          C           0.071237        3.9288     1.06693     2.86183
   23          C          -0.251755        4.2518     1.08861     3.16314
   24          C           0.055767        3.9442     1.09805     2.84618
   25          N          -0.374933        5.3749     1.74228     3.63265
   26          C           0.056810        3.9432     1.09806     2.84513
   27          C          -0.252628        4.2526     1.08852     3.16411
   28          C          -0.234168        4.2342     1.07772     3.15645
   29          C          -0.117425        4.1174     1.07977     3.03766
   30          H           0.158197        0.8418     0.84180
   31          H           0.147254        0.8527     0.85275
   32          H           0.159814        0.8402     0.84019
   33          H           0.179037        0.8210     0.82096
   34          H           0.305873        0.6941     0.69413
   35          H           0.187989        0.8120     0.81201
   36          H           0.165591        0.8344     0.83441
   37          H           0.178454        0.8215     0.82155
   38          H           0.161720        0.8383     0.83828
   39          H           0.196699        0.8033     0.80330
   40          H           0.335539        0.6645     0.66446
   41          H           0.181805        0.8182     0.81819
   42          H           0.161452        0.8385     0.83855
   43          H           0.163032        0.8370     0.83697
   44          H           0.184454        0.8155     0.81555
   45          H           0.171980        0.8280     0.82802
   46          H           0.170323        0.8297     0.82968
   47          H           0.170687        0.8293     0.82931
   48          H           0.172461        0.8275     0.82754
   49          H           0.157634        0.8424     0.84237
   50          H           0.143581        0.8564     0.85642
 DIPOLE           X         Y         Z       TOTAL
 POINT-CHG.    -1.677    -2.133     2.462     3.664
 HYBRID        -0.330    -0.638     1.163     1.367
 SUM           -2.007    -2.771     3.625     4.985


          ATOMIC ORBITAL ELECTRON POPULATIONS

     Atom    s        px        py        pz   
    1  C   1.06042   1.17906   1.06747   1.16518
    2  C   1.06276   0.84661   0.99709   0.98510
    3  N   1.56582   1.41461   1.29275   1.35284
    4  C   1.07322   0.78017   0.73737   0.79433
    5  O   1.87988   1.67740   1.60903   1.37360
    6  C   1.06321   1.12645   1.18749   1.15323
    7  C   1.07597   0.99341   1.01273   0.99854
    8  C   1.08667   0.97297   1.00166   1.04752
    9  C   1.08514   1.06888   1.02729   0.99719
   10  C   1.05425   0.83206   0.97136   0.93619
   11  N   1.52264   1.08015   1.64997   1.20884
   12  C   1.04830   0.80880   0.82943   0.80051
   13  N   1.75771   1.11281   1.25915   1.35944
   14  C   1.10473   0.91490   0.81585   0.99751
   15  C   1.05813   1.01053   1.16409   1.01398
   16  C   1.08416   1.00964   0.94580   1.02813
   17  C   1.05823   0.97479   1.06286   0.99267
   18  C   1.08993   0.98295   0.94228   1.06490
   19  C   1.08333   1.03478   1.04052   1.02630
   20  C   1.06645   0.84257   0.85930   0.96286
   21  N   1.75561   1.23618   1.32639   1.21146
   22  C   1.06693   0.96322   0.96799   0.93062
   23  C   1.08861   1.01073   1.07751   1.07490
   24  C   1.09805   0.98855   0.95619   0.90144
   25  N   1.74228   1.40158   1.07722   1.15385
   26  C   1.09806   0.92754   0.98510   0.93248
   27  C   1.08852   1.04319   1.06287   1.05804
   28  C   1.07772   0.99543   1.07107   1.08995
   29  C   1.07977   1.03861   1.00741   0.99164
   30  H   0.84180
   31  H   0.85275
   32  H   0.84019
   33  H   0.82096
   34  H   0.69413
   35  H   0.81201
   36  H   0.83441
   37  H   0.82155
   38  H   0.83828
   39  H   0.80330
   40  H   0.66446
   41  H   0.81819
   42  H   0.83855
   43  H   0.83697
   44  H   0.81555
   45  H   0.82802
   46  H   0.82968
   47  H   0.82931
   48  H   0.82754
   49  H   0.84237
   50  H   0.85642

 **********************
 *                    *
 * JOB ENDED NORMALLY *
 *                    *
 **********************



 TOTAL JOB TIME:             5.60 SECONDS

 == MOPAC DONE ==
