 *******************************************************************************
 **                                                                           **
 **                              MOPAC v23.0.3                                **
 **                                                                           **
 *******************************************************************************
 **          Digital Object Identifier (DOI): 10.5281/zenodo.6511958          **
 **    Visit the DOI location for information on how to cite this program.    **
 *******************************************************************************

                              PM7 CALCULATION RESULTS

 *******************************************************************************
 *  CALCULATION DONE:                                Fri Jul 25 18:47:48 2025  *
 *  PM7        - The PM7 Hamiltonian to be used
 *  XYZ        - CARTESIAN COORDINATE SYSTEM TO BE USED
 *  T=         - A TIME OF 172800.0 SECONDS REQUESTED
 *  DUMP=N     - RESTART FILE WRITTEN EVERY 7200.0 SECONDS REQUESTED
 *******************************************************************************
PM7 XYZ

 Lipophilicity_1969 - geometry optimisation
   ATOM   CHEMICAL          X               Y               Z
  NUMBER   SYMBOL      (ANGSTROMS)     (ANGSTROMS)     (ANGSTROMS)

     1       C         -4.44290600  *  -2.26657000  *   0.78765600  *
     2       O         -3.56767100  *  -1.15014500  *   0.66739200  *
     3       C         -3.65716900  *  -0.16843500  *  -0.33399900  *
     4       C         -4.67074900  *  -0.20245500  *  -1.31338500  *
     5       C         -4.75790700  *   0.80360800  *  -2.27820900  *
     6       F         -5.73890800  *   0.76215200  *  -3.21331000  *
     7       C         -3.83984400  *   1.85332400  *  -2.27912400  *
     8       C         -2.82733200  *   1.89825100  *  -1.31970200  *
     9       C         -2.71940000  *   0.88897600  *  -0.34648600  *
    10       C         -1.62360500  *   0.95382400  *   0.65082200  *
    11       C         -1.37201500  *   2.13898600  *   1.35943000  *
    12       N         -0.35649100  *   2.19675700  *   2.26062000  *
    13       C          0.44534100  *   1.12791600  *   2.50659800  *
    14       C          0.23823000  *  -0.07994600  *   1.82760300  *
    15       C          1.15052900  *  -1.25113300  *   2.06797100  *
    16       N          2.44521500  *  -1.01880300  *   1.43183200  *
    17       C          2.61768100  *  -1.06878500  *   0.00585000  *
    18       O          1.70329600  *  -1.55115100  *  -0.71648800  *
    19       C          3.85743900  *  -0.58847700  *  -0.63974200  *
    20       C          4.74135300  *   0.29108300  *   0.01050600  *
    21       C          5.89250700  *   0.72223000  *  -0.65259900  *
    22       C          6.15283700  *   0.28569100  *  -1.95167100  *
    23       C          5.24932700  *  -0.57603800  *  -2.57461300  *
    24       N          4.13399600  *  -0.98632400  *  -1.91388900  *
    25       C         -0.79875100  *  -0.15682800  *   0.88776200  *
    26       H         -4.38417000  *  -2.89762400  *  -0.12418100  *
    27       H         -5.48541000  *  -1.91918200  *   0.94758200  *
    28       H         -4.13391300  *  -2.87596800  *   1.66140900  *
    29       H         -5.40118100  *  -0.99952000  *  -1.33252000  *
    30       H         -3.90912300  *   2.63263400  *  -3.02719000  *
    31       H         -2.11540600  *   2.71419800  *  -1.34632400  *
    32       H         -1.98837000  *   3.01492100  *   1.20261300  *
    33       H          1.24764900  *   1.22072400  *   3.22737900  *
    34       H          0.70593300  *  -2.19680700  *   1.68799400  *
    35       H          1.29535300  *  -1.37798500  *   3.16301900  *
    36       H          3.27058300  *  -0.86337800  *   2.05189300  *
    37       H          4.54129900  *   0.66413900  *   1.00547100  *
    38       H          6.57863400  *   1.40050900  *  -0.16193400  *
    39       H          7.04174300  *   0.61688100  *  -2.47278500  *
    40       H          5.43322100  *  -0.91827500  *  -3.58420900  *
    41       H         -0.95184600  *  -1.07297300  *   0.32999400  *



          CARTESIAN COORDINATES 

    NO.       ATOM           X           Y           Z

     1         C         -4.4429     -2.2666      0.7877
     2         O         -3.5677     -1.1501      0.6674
     3         C         -3.6572     -0.1684     -0.3340
     4         C         -4.6707     -0.2025     -1.3134
     5         C         -4.7579      0.8036     -2.2782
     6         F         -5.7389      0.7622     -3.2133
     7         C         -3.8398      1.8533     -2.2791
     8         C         -2.8273      1.8983     -1.3197
     9         C         -2.7194      0.8890     -0.3465
    10         C         -1.6236      0.9538      0.6508
    11         C         -1.3720      2.1390      1.3594
    12         N         -0.3565      2.1968      2.2606
    13         C          0.4453      1.1279      2.5066
    14         C          0.2382     -0.0799      1.8276
    15         C          1.1505     -1.2511      2.0680
    16         N          2.4452     -1.0188      1.4318
    17         C          2.6177     -1.0688      0.0059
    18         O          1.7033     -1.5512     -0.7165
    19         C          3.8574     -0.5885     -0.6397
    20         C          4.7414      0.2911      0.0105
    21         C          5.8925      0.7222     -0.6526
    22         C          6.1528      0.2857     -1.9517
    23         C          5.2493     -0.5760     -2.5746
    24         N          4.1340     -0.9863     -1.9139
    25         C         -0.7988     -0.1568      0.8878
    26         H         -4.3842     -2.8976     -0.1242
    27         H         -5.4854     -1.9192      0.9476
    28         H         -4.1339     -2.8760      1.6614
    29         H         -5.4012     -0.9995     -1.3325
    30         H         -3.9091      2.6326     -3.0272
    31         H         -2.1154      2.7142     -1.3463
    32         H         -1.9884      3.0149      1.2026
    33         H          1.2476      1.2207      3.2274
    34         H          0.7059     -2.1968      1.6880
    35         H          1.2954     -1.3780      3.1630
    36         H          3.2706     -0.8634      2.0519
    37         H          4.5413      0.6641      1.0055
    38         H          6.5786      1.4005     -0.1619
    39         H          7.0417      0.6169     -2.4728
    40         H          5.4332     -0.9183     -3.5842
    41         H         -0.9518     -1.0730      0.3300

 General Reference for PM7:
 "Optimization of Parameters for Semiempirical Methods VI: More Modifications to the 
 NDDO Approximations and Re-optimization of Parameters", J. J. P. Stewart, J. Mol. Mod., 1:32, 19 (2013)
 https://link.springer.com/article/10.1007/s00894-012-1667-x

           Empirical Formula: C19 H16 N3 O2 F  =    41 atoms



      MOLECULAR POINT GROUP   :   C1  


      RHF CALCULATION, NO. OF DOUBLY OCCUPIED LEVELS = 63


          Geometry optimization using L-BFGS
 CYCLE:     1 TIME:   0.070 TIME LEFT:  2.00D  GRAD.:   195.377 HEAT: -13.39253
 CYCLE:     2 TIME:   0.023 TIME LEFT:  2.00D  GRAD.:   191.170 HEAT: -13.76995
 CYCLE:     3 TIME:   0.031 TIME LEFT:  2.00D  GRAD.:    68.471 HEAT: -23.99802
 CYCLE:     4 TIME:   0.031 TIME LEFT:  2.00D  GRAD.:   191.416 HEAT: -13.77356
 CYCLE:     5 TIME:   0.023 TIME LEFT:  2.00D  GRAD.:    68.584 HEAT: -23.99759
 CYCLE:     6 TIME:   0.023 TIME LEFT:  2.00D  GRAD.:    51.209 HEAT: -25.38707
 CYCLE:     7 TIME:   0.031 TIME LEFT:  2.00D  GRAD.:    43.095 HEAT: -28.22361
 CYCLE:     8 TIME:   0.023 TIME LEFT:  2.00D  GRAD.:    54.179 HEAT: -29.67772
 CYCLE:     9 TIME:   0.031 TIME LEFT:  2.00D  GRAD.:    36.291 HEAT: -30.60322
 CYCLE:    10 TIME:   0.023 TIME LEFT:  2.00D  GRAD.:    24.921 HEAT: -31.07437
 CYCLE:    11 TIME:   0.031 TIME LEFT:  2.00D  GRAD.:    19.266 HEAT: -31.73234
 CYCLE:    12 TIME:   0.023 TIME LEFT:  2.00D  GRAD.:    20.990 HEAT: -32.08499
 CYCLE:    13 TIME:   0.031 TIME LEFT:  2.00D  GRAD.:    23.276 HEAT: -32.27149
 CYCLE:    14 TIME:   0.023 TIME LEFT:  2.00D  GRAD.:    10.809 HEAT: -32.43569
 CYCLE:    15 TIME:   0.023 TIME LEFT:  2.00D  GRAD.:    10.090 HEAT: -32.53971
 CYCLE:    16 TIME:   0.023 TIME LEFT:  2.00D  GRAD.:    11.397 HEAT: -32.66539
 CYCLE:    17 TIME:   0.031 TIME LEFT:  2.00D  GRAD.:    26.896 HEAT: -32.73193
 CYCLE:    18 TIME:   0.023 TIME LEFT:  2.00D  GRAD.:     9.212 HEAT: -32.88245
 CYCLE:    19 TIME:   0.023 TIME LEFT:  2.00D  GRAD.:     6.948 HEAT: -32.93853
 CYCLE:    20 TIME:   0.031 TIME LEFT:  2.00D  GRAD.:     8.578 HEAT: -33.00686
 CYCLE:    21 TIME:   0.023 TIME LEFT:  2.00D  GRAD.:    13.633 HEAT: -33.08426
 CYCLE:    22 TIME:   0.023 TIME LEFT:  2.00D  GRAD.:     9.483 HEAT: -33.16647
 CYCLE:    23 TIME:   0.023 TIME LEFT:  2.00D  GRAD.:     7.923 HEAT: -33.21434
 CYCLE:    24 TIME:   0.023 TIME LEFT:  2.00D  GRAD.:     6.593 HEAT: -33.25289
 CYCLE:    25 TIME:   0.031 TIME LEFT:  2.00D  GRAD.:     6.039 HEAT: -33.28808
 CYCLE:    26 TIME:   0.023 TIME LEFT:  2.00D  GRAD.:    17.009 HEAT: -33.30207
 CYCLE:    27 TIME:   0.023 TIME LEFT:  2.00D  GRAD.:     5.013 HEAT: -33.36091
 CYCLE:    28 TIME:   0.023 TIME LEFT:  2.00D  GRAD.:     4.276 HEAT: -33.37413
 CYCLE:    29 TIME:   0.031 TIME LEFT:  2.00D  GRAD.:     4.942 HEAT: -33.41069
 CYCLE:    30 TIME:   0.023 TIME LEFT:  2.00D  GRAD.:    16.661 HEAT: -33.40848
 CYCLE:    31 TIME:   0.031 TIME LEFT:  2.00D  GRAD.:     5.165 HEAT: -33.45612
 CYCLE:    32 TIME:   0.062 TIME LEFT:  2.00D  GRAD.:     3.648 HEAT: -33.46975
 CYCLE:    33 TIME:   0.039 TIME LEFT:  2.00D  GRAD.:     4.928 HEAT: -33.49216
 CYCLE:    34 TIME:   0.055 TIME LEFT:  2.00D  GRAD.:     6.134 HEAT: -33.52250
 CYCLE:    35 TIME:   0.031 TIME LEFT:  2.00D  GRAD.:    10.202 HEAT: -33.55486
 CYCLE:    36 TIME:   0.023 TIME LEFT:  2.00D  GRAD.:     7.424 HEAT: -33.60708
 CYCLE:    37 TIME:   0.031 TIME LEFT:  2.00D  GRAD.:     7.259 HEAT: -33.65347
 CYCLE:    38 TIME:   0.023 TIME LEFT:  2.00D  GRAD.:     9.154 HEAT: -33.70734
 CYCLE:    39 TIME:   0.023 TIME LEFT:  2.00D  GRAD.:     9.677 HEAT: -33.74754
 CYCLE:    40 TIME:   0.031 TIME LEFT:  2.00D  GRAD.:     6.913 HEAT: -33.79307
 CYCLE:    41 TIME:   0.023 TIME LEFT:  2.00D  GRAD.:     6.826 HEAT: -33.84324
 CYCLE:    42 TIME:   0.031 TIME LEFT:  2.00D  GRAD.:     9.068 HEAT: -33.88021
 CYCLE:    43 TIME:   0.023 TIME LEFT:  2.00D  GRAD.:    11.074 HEAT: -33.91725
 CYCLE:    44 TIME:   0.031 TIME LEFT:  2.00D  GRAD.:    24.612 HEAT: -33.94006
 CYCLE:    45 TIME:   0.023 TIME LEFT:  2.00D  GRAD.:     9.513 HEAT: -34.06785
 CYCLE:    46 TIME:   0.031 TIME LEFT:  2.00D  GRAD.:     8.179 HEAT: -34.10444
 CYCLE:    47 TIME:   0.023 TIME LEFT:  2.00D  GRAD.:     8.160 HEAT: -34.14736
 CYCLE:    48 TIME:   0.031 TIME LEFT:  2.00D  GRAD.:     9.498 HEAT: -34.19975
 CYCLE:    49 TIME:   0.023 TIME LEFT:  2.00D  GRAD.:    65.291 HEAT: -33.55187
 CYCLE:    50 TIME:   0.031 TIME LEFT:  2.00D  GRAD.:    10.268 HEAT: -34.31811
 CYCLE:    51 TIME:   0.023 TIME LEFT:  2.00D  GRAD.:     6.739 HEAT: -34.35125
 CYCLE:    52 TIME:   0.031 TIME LEFT:  2.00D  GRAD.:     6.126 HEAT: -34.39219
 CYCLE:    53 TIME:   0.023 TIME LEFT:  2.00D  GRAD.:    18.284 HEAT: -34.43019
 CYCLE:    54 TIME:   0.031 TIME LEFT:  2.00D  GRAD.:    17.468 HEAT: -34.47453
 CYCLE:    55 TIME:   0.023 TIME LEFT:  2.00D  GRAD.:     5.740 HEAT: -34.52754
 CYCLE:    56 TIME:   0.023 TIME LEFT:  2.00D  GRAD.:     5.006 HEAT: -34.54845
 CYCLE:    57 TIME:   0.031 TIME LEFT:  2.00D  GRAD.:    15.078 HEAT: -34.51867
 CYCLE:    58 TIME:   0.031 TIME LEFT:  2.00D  GRAD.:    14.997 HEAT: -34.58216
 CYCLE:    59 TIME:   0.023 TIME LEFT:  2.00D  GRAD.:    25.296 HEAT: -34.55765
 CYCLE:    60 TIME:   0.031 TIME LEFT:  2.00D  GRAD.:     8.974 HEAT: -34.67832
 CYCLE:    61 TIME:   0.023 TIME LEFT:  2.00D  GRAD.:     4.976 HEAT: -34.70023
 CYCLE:    62 TIME:   0.023 TIME LEFT:  2.00D  GRAD.:     4.214 HEAT: -34.72117
 CYCLE:    63 TIME:   0.031 TIME LEFT:  2.00D  GRAD.:     7.156 HEAT: -34.75797
 CYCLE:    64 TIME:   0.023 TIME LEFT:  2.00D  GRAD.:     9.292 HEAT: -34.79783
 CYCLE:    65 TIME:   0.031 TIME LEFT:  2.00D  GRAD.:     8.009 HEAT: -34.83467
 CYCLE:    66 TIME:   0.250 TIME LEFT:  2.00D  GRAD.:    10.448 HEAT: -34.88746
 CYCLE:    67 TIME:   0.031 TIME LEFT:  2.00D  GRAD.:     7.568 HEAT: -34.92170
 CYCLE:    68 TIME:   0.023 TIME LEFT:  2.00D  GRAD.:     5.923 HEAT: -34.95028
 CYCLE:    69 TIME:   0.031 TIME LEFT:  2.00D  GRAD.:     7.809 HEAT: -34.97927
 CYCLE:    70 TIME:   0.023 TIME LEFT:  2.00D  GRAD.:    16.050 HEAT: -34.99035
 CYCLE:    71 TIME:   0.031 TIME LEFT:  2.00D  GRAD.:     4.810 HEAT: -35.05074
 CYCLE:    72 TIME:   0.023 TIME LEFT:  2.00D  GRAD.:     4.318 HEAT: -35.07117
 CYCLE:    73 TIME:   0.031 TIME LEFT:  2.00D  GRAD.:     8.580 HEAT: -35.06379
 CYCLE:    74 TIME:   0.031 TIME LEFT:  2.00D  GRAD.:    16.578 HEAT: -35.06293
 CYCLE:    75 TIME:   0.023 TIME LEFT:  2.00D  GRAD.:     8.411 HEAT: -35.11973
 CYCLE:    76 TIME:   0.023 TIME LEFT:  2.00D  GRAD.:     3.743 HEAT: -35.14302
 CYCLE:    77 TIME:   0.031 TIME LEFT:  2.00D  GRAD.:     8.057 HEAT: -35.10521
 CYCLE:    78 TIME:   0.023 TIME LEFT:  2.00D  GRAD.:     6.625 HEAT: -35.16853
 CYCLE:    79 TIME:   0.031 TIME LEFT:  2.00D  GRAD.:    15.680 HEAT: -35.12840
 CYCLE:    80 TIME:   0.031 TIME LEFT:  2.00D  GRAD.:     3.552 HEAT: -35.18810
 CYCLE:    81 TIME:   0.023 TIME LEFT:  2.00D  GRAD.:     2.747 HEAT: -35.19948
 CYCLE:    82 TIME:   0.031 TIME LEFT:  2.00D  GRAD.:     9.478 HEAT: -35.21528
 CYCLE:    83 TIME:   0.023 TIME LEFT:  2.00D  GRAD.:     6.816 HEAT: -35.24485
 CYCLE:    84 TIME:   0.031 TIME LEFT:  2.00D  GRAD.:     8.702 HEAT: -35.27565
 CYCLE:    85 TIME:   0.023 TIME LEFT:  2.00D  GRAD.:    10.899 HEAT: -35.30231
 CYCLE:    86 TIME:   0.031 TIME LEFT:  2.00D  GRAD.:     3.986 HEAT: -35.32460
 CYCLE:    87 TIME:   0.023 TIME LEFT:  2.00D  GRAD.:     3.209 HEAT: -35.33968
 CYCLE:    88 TIME:   0.031 TIME LEFT:  2.00D  GRAD.:    16.543 HEAT: -35.31707
 CYCLE:    89 TIME:   0.023 TIME LEFT:  2.00D  GRAD.:     7.680 HEAT: -35.34155
 CYCLE:    90 TIME:   0.031 TIME LEFT:  2.00D  GRAD.:    25.653 HEAT: -35.28527
 CYCLE:    91 TIME:   0.031 TIME LEFT:  2.00D  GRAD.:    19.739 HEAT: -35.28941
 CYCLE:    92 TIME:   0.031 TIME LEFT:  2.00D  GRAD.:    48.739 HEAT: -35.05594
 CYCLE:    93 TIME:   0.031 TIME LEFT:  2.00D  GRAD.:    58.095 HEAT: -34.71847
 CYCLE:    94 TIME:   0.031 TIME LEFT:  2.00D  GRAD.:    79.833 HEAT: -33.24030
 CYCLE:    95 TIME:   0.031 TIME LEFT:  2.00D  GRAD.:    75.788 HEAT: -34.34815
 CYCLE:    96 TIME:   0.031 TIME LEFT:  2.00D  GRAD.:   106.528 HEAT: -32.21186
 CYCLE:    97 TIME:   0.031 TIME LEFT:  2.00D  GRAD.:    85.261 HEAT: -33.99629
 CYCLE:    98 TIME:   0.031 TIME LEFT:  2.00D  GRAD.:   471.727 HEAT:  3.130918
 CYCLE:    99 TIME:   0.031 TIME LEFT:  2.00D  GRAD.:   403.144 HEAT: -4.423412
 CYCLE:   100 TIME:   0.039 TIME LEFT:  2.00D  GRAD.:    80.466 HEAT: -33.06786
 CYCLE:   101 TIME:   0.031 TIME LEFT:  2.00D  GRAD.:   147.386 HEAT: -27.55663
 CYCLE:   102 TIME:   0.031 TIME LEFT:  2.00D  GRAD.:   137.945 HEAT: -31.46892
 CYCLE:   103 TIME:   0.031 TIME LEFT:  2.00D  GRAD.:    66.968 HEAT: -33.17472
 CYCLE:   104 TIME:   0.031 TIME LEFT:  2.00D  GRAD.:    47.445 HEAT: -34.24920
 CYCLE:   105 TIME:   0.023 TIME LEFT:  2.00D  GRAD.:    78.551 HEAT: -34.04160
 CYCLE:   106 TIME:   0.031 TIME LEFT:  2.00D  GRAD.:    17.100 HEAT: -35.05443
 CYCLE:   107 TIME:   0.031 TIME LEFT:  2.00D  GRAD.:    17.278 HEAT: -35.19136
 CYCLE:   108 TIME:   0.023 TIME LEFT:  2.00D  GRAD.:    11.359 HEAT: -35.32225
 CYCLE:   109 TIME:   0.031 TIME LEFT:  2.00D  GRAD.:    25.905 HEAT: -35.26036
 CYCLE:   110 TIME:   0.031 TIME LEFT:  2.00D  GRAD.:    14.208 HEAT: -35.53787
 CYCLE:   111 TIME:   0.062 TIME LEFT:  2.00D  GRAD.:    15.746 HEAT: -35.58199
 CYCLE:   112 TIME:   0.023 TIME LEFT:  2.00D  GRAD.:     6.877 HEAT: -35.64753
 CYCLE:   113 TIME:   0.031 TIME LEFT:  2.00D  GRAD.:     8.554 HEAT: -35.72258
 CYCLE:   114 TIME:   0.031 TIME LEFT:  2.00D  GRAD.:     6.864 HEAT: -35.76902
 CYCLE:   115 TIME:   0.031 TIME LEFT:  2.00D  GRAD.:    26.239 HEAT: -35.28455
 CYCLE:   116 TIME:   0.023 TIME LEFT:  2.00D  GRAD.:    14.131 HEAT: -35.82647
 CYCLE:   117 TIME:   0.031 TIME LEFT:  2.00D  GRAD.:    30.954 HEAT: -35.69970
 CYCLE:   118 TIME:   0.023 TIME LEFT:  2.00D  GRAD.:     3.618 HEAT: -35.87483
 CYCLE:   119 TIME:   0.031 TIME LEFT:  2.00D  GRAD.:     3.375 HEAT: -35.88281
 CYCLE:   120 TIME:   0.023 TIME LEFT:  2.00D  GRAD.:     8.341 HEAT: -35.88587
 CYCLE:   121 TIME:   0.031 TIME LEFT:  2.00D  GRAD.:     8.372 HEAT: -35.92323
 CYCLE:   122 TIME:   0.023 TIME LEFT:  2.00D  GRAD.:     5.811 HEAT: -35.93207
 CYCLE:   123 TIME:   0.031 TIME LEFT:  2.00D  GRAD.:     2.855 HEAT: -35.95457
 CYCLE:   124 TIME:   0.031 TIME LEFT:  2.00D  GRAD.:    44.425 HEAT: -35.51438
 CYCLE:   125 TIME:   0.031 TIME LEFT:  2.00D  GRAD.:     6.604 HEAT: -35.99449
 CYCLE:   126 TIME:   0.023 TIME LEFT:  2.00D  GRAD.:     6.428 HEAT: -36.00930
 CYCLE:   127 TIME:   0.031 TIME LEFT:  2.00D  GRAD.:    33.546 HEAT: -35.83185
 CYCLE:   128 TIME:   0.023 TIME LEFT:  2.00D  GRAD.:     5.894 HEAT: -36.06764
 CYCLE:   129 TIME:   0.031 TIME LEFT:  2.00D  GRAD.:     5.387 HEAT: -36.08691
 CYCLE:   130 TIME:   0.031 TIME LEFT:  2.00D  GRAD.:    22.563 HEAT: -36.05585
 CYCLE:   131 TIME:   0.023 TIME LEFT:  2.00D  GRAD.:     6.622 HEAT: -36.15505
 CYCLE:   132 TIME:   0.023 TIME LEFT:  2.00D  GRAD.:     5.311 HEAT: -36.17774
 CYCLE:   133 TIME:   0.031 TIME LEFT:  2.00D  GRAD.:    32.643 HEAT: -35.90823
 CYCLE:   134 TIME:   0.039 TIME LEFT:  2.00D  GRAD.:    40.831 HEAT: -35.80847
 CYCLE:   135 TIME:   0.023 TIME LEFT:  2.00D  GRAD.:    63.615 HEAT: -35.56320
 CYCLE:   136 TIME:   0.031 TIME LEFT:  2.00D  GRAD.:    10.223 HEAT: -36.26658
 CYCLE:   137 TIME:   0.023 TIME LEFT:  2.00D  GRAD.:     7.826 HEAT: -36.28711
 CYCLE:   138 TIME:   0.031 TIME LEFT:  2.00D  GRAD.:    15.344 HEAT: -36.23221
 CYCLE:   139 TIME:   0.023 TIME LEFT:  2.00D  GRAD.:    11.195 HEAT: -36.34258
 CYCLE:   140 TIME:   0.031 TIME LEFT:  2.00D  GRAD.:    13.441 HEAT: -36.34851
 CYCLE:   141 TIME:   0.023 TIME LEFT:  2.00D  GRAD.:     4.299 HEAT: -36.38689
 CYCLE:   142 TIME:   0.023 TIME LEFT:  2.00D  GRAD.:     4.929 HEAT: -36.40788
 CYCLE:   143 TIME:   0.031 TIME LEFT:  2.00D  GRAD.:    20.467 HEAT: -36.34192
 CYCLE:   144 TIME:   0.031 TIME LEFT:  2.00D  GRAD.:    10.273 HEAT: -36.48654
 CYCLE:   145 TIME:   0.023 TIME LEFT:  2.00D  GRAD.:     7.836 HEAT: -36.52719
 CYCLE:   146 TIME:   0.023 TIME LEFT:  2.00D  GRAD.:     5.731 HEAT: -36.60124
 CYCLE:   147 TIME:   0.031 TIME LEFT:  2.00D  GRAD.:    16.877 HEAT: -36.65890
 CYCLE:   148 TIME:   0.031 TIME LEFT:  2.00D  GRAD.:     8.734 HEAT: -36.72019
 CYCLE:   149 TIME:   0.023 TIME LEFT:  2.00D  GRAD.:     6.416 HEAT: -36.76730
 CYCLE:   150 TIME:   0.031 TIME LEFT:  2.00D  GRAD.:    19.722 HEAT: -36.71976
 CYCLE:   151 TIME:   0.031 TIME LEFT:  2.00D  GRAD.:    12.348 HEAT: -36.82649
 CYCLE:   152 TIME:   0.023 TIME LEFT:  2.00D  GRAD.:     8.647 HEAT: -36.85906
 CYCLE:   153 TIME:   0.031 TIME LEFT:  2.00D  GRAD.:     4.785 HEAT: -36.88914
 CYCLE:   154 TIME:   0.031 TIME LEFT:  2.00D  GRAD.:     8.941 HEAT: -36.91418
 CYCLE:   155 TIME:   0.031 TIME LEFT:  2.00D  GRAD.:     6.843 HEAT: -36.95620
 CYCLE:   156 TIME:   0.023 TIME LEFT:  2.00D  GRAD.:     5.774 HEAT: -37.00299
 CYCLE:   157 TIME:   0.031 TIME LEFT:  2.00D  GRAD.:     6.233 HEAT: -37.06451
 CYCLE:   158 TIME:   0.031 TIME LEFT:  2.00D  GRAD.:     9.274 HEAT: -37.10337
 CYCLE:   159 TIME:   0.031 TIME LEFT:  2.00D  GRAD.:     6.341 HEAT: -37.13322
 CYCLE:   160 TIME:   0.023 TIME LEFT:  2.00D  GRAD.:     5.679 HEAT: -37.15390
 CYCLE:   161 TIME:   0.031 TIME LEFT:  2.00D  GRAD.:     9.299 HEAT: -37.17328
 CYCLE:   162 TIME:   0.031 TIME LEFT:  2.00D  GRAD.:    16.519 HEAT: -37.12402
 CYCLE:   163 TIME:   0.023 TIME LEFT:  2.00D  GRAD.:     9.732 HEAT: -37.22858
 CYCLE:   164 TIME:   0.023 TIME LEFT:  2.00D  GRAD.:     4.427 HEAT: -37.25832
 CYCLE:   165 TIME:   0.031 TIME LEFT:  2.00D  GRAD.:     4.970 HEAT: -37.27541
 CYCLE:   166 TIME:   0.031 TIME LEFT:  2.00D  GRAD.:    10.621 HEAT: -37.31975
 CYCLE:   167 TIME:   0.023 TIME LEFT:  2.00D  GRAD.:    17.941 HEAT: -37.33301
 CYCLE:   168 TIME:   0.023 TIME LEFT:  2.00D  GRAD.:     4.994 HEAT: -37.39134
 CYCLE:   169 TIME:   0.031 TIME LEFT:  2.00D  GRAD.:     4.576 HEAT: -37.41219
 CYCLE:   170 TIME:   0.023 TIME LEFT:  2.00D  GRAD.:     8.258 HEAT: -37.43018
 CYCLE:   171 TIME:   0.031 TIME LEFT:  2.00D  GRAD.:    14.949 HEAT: -37.45640
 CYCLE:   172 TIME:   0.023 TIME LEFT:  2.00D  GRAD.:     5.369 HEAT: -37.50125
 CYCLE:   173 TIME:   0.023 TIME LEFT:  2.00D  GRAD.:     4.038 HEAT: -37.52395
 CYCLE:   174 TIME:   0.031 TIME LEFT:  2.00D  GRAD.:    10.923 HEAT: -37.51265
 CYCLE:   175 TIME:   0.031 TIME LEFT:  2.00D  GRAD.:     7.516 HEAT: -37.54961
 CYCLE:   176 TIME:   0.023 TIME LEFT:  2.00D  GRAD.:     6.391 HEAT: -37.56665
 CYCLE:   177 TIME:   0.023 TIME LEFT:  2.00D  GRAD.:     4.033 HEAT: -37.58640
 CYCLE:   178 TIME:   0.031 TIME LEFT:  2.00D  GRAD.:     8.935 HEAT: -37.59787
 CYCLE:   179 TIME:   0.031 TIME LEFT:  2.00D  GRAD.:     9.520 HEAT: -37.58805
 CYCLE:   180 TIME:   0.031 TIME LEFT:  2.00D  GRAD.:    24.591 HEAT: -37.57439
 CYCLE:   181 TIME:   0.023 TIME LEFT:  2.00D  GRAD.:    12.505 HEAT: -37.68090
 CYCLE:   182 TIME:   0.031 TIME LEFT:  2.00D  GRAD.:     6.056 HEAT: -37.69852
 CYCLE:   183 TIME:   0.023 TIME LEFT:  2.00D  GRAD.:     4.086 HEAT: -37.73287
 CYCLE:   184 TIME:   0.031 TIME LEFT:  2.00D  GRAD.:    10.066 HEAT: -37.74851
 CYCLE:   185 TIME:   0.023 TIME LEFT:  2.00D  GRAD.:     6.979 HEAT: -37.79952
 CYCLE:   186 TIME:   0.023 TIME LEFT:  2.00D  GRAD.:     5.643 HEAT: -37.84788
 CYCLE:   187 TIME:   0.031 TIME LEFT:  2.00D  GRAD.:     9.215 HEAT: -37.89612
 CYCLE:   188 TIME:   0.031 TIME LEFT:  2.00D  GRAD.:     7.769 HEAT: -37.93049
 CYCLE:   189 TIME:   0.031 TIME LEFT:  2.00D  GRAD.:     7.103 HEAT: -37.97377
 CYCLE:   190 TIME:   0.023 TIME LEFT:  2.00D  GRAD.:    15.969 HEAT: -37.96792
 CYCLE:   191 TIME:   0.031 TIME LEFT:  2.00D  GRAD.:    13.883 HEAT: -38.03258
 CYCLE:   192 TIME:   0.023 TIME LEFT:  2.00D  GRAD.:     8.736 HEAT: -38.07482
 CYCLE:   193 TIME:   0.031 TIME LEFT:  2.00D  GRAD.:     4.650 HEAT: -38.10234
 CYCLE:   194 TIME:   0.031 TIME LEFT:  2.00D  GRAD.:    19.328 HEAT: -38.08727
 CYCLE:   195 TIME:   0.023 TIME LEFT:  2.00D  GRAD.:     8.055 HEAT: -38.11178
 CYCLE:   196 TIME:   0.031 TIME LEFT:  2.00D  GRAD.:     5.328 HEAT: -38.17405
 CYCLE:   197 TIME:   0.031 TIME LEFT:  2.00D  GRAD.:    10.977 HEAT: -38.20622
 CYCLE:   198 TIME:   0.023 TIME LEFT:  2.00D  GRAD.:     9.672 HEAT: -38.23589
 CYCLE:   199 TIME:   0.031 TIME LEFT:  2.00D  GRAD.:    17.411 HEAT: -38.31403
 CYCLE:   200 TIME:   0.031 TIME LEFT:  2.00D  GRAD.:    41.320 HEAT: -38.06502
 CYCLE:   201 TIME:   0.023 TIME LEFT:  2.00D  GRAD.:     6.118 HEAT: -38.40819
 CYCLE:   202 TIME:   0.031 TIME LEFT:  2.00D  GRAD.:     7.062 HEAT: -38.43544
 CYCLE:   203 TIME:   0.031 TIME LEFT:  2.00D  GRAD.:    10.613 HEAT: -38.50720
 CYCLE:   204 TIME:   0.023 TIME LEFT:  2.00D  GRAD.:     8.406 HEAT: -38.56110
 CYCLE:   205 TIME:   0.031 TIME LEFT:  2.00D  GRAD.:     5.925 HEAT: -38.60036
 CYCLE:   206 TIME:   0.023 TIME LEFT:  2.00D  GRAD.:     7.149 HEAT: -38.65346
 CYCLE:   207 TIME:   0.031 TIME LEFT:  2.00D  GRAD.:    19.242 HEAT: -38.62692
 CYCLE:   208 TIME:   0.023 TIME LEFT:  2.00D  GRAD.:     5.121 HEAT: -38.70403
 CYCLE:   209 TIME:   0.031 TIME LEFT:  2.00D  GRAD.:     4.819 HEAT: -38.73508
 CYCLE:   210 TIME:   0.023 TIME LEFT:  2.00D  GRAD.:     7.709 HEAT: -38.75882
 CYCLE:   211 TIME:   0.023 TIME LEFT:  2.00D  GRAD.:     6.713 HEAT: -38.79448
 CYCLE:   212 TIME:   0.031 TIME LEFT:  2.00D  GRAD.:    10.481 HEAT: -38.79676
 CYCLE:   213 TIME:   0.031 TIME LEFT:  2.00D  GRAD.:    49.838 HEAT: -38.35683
 CYCLE:   214 TIME:   0.023 TIME LEFT:  2.00D  GRAD.:     4.061 HEAT: -38.84401
 CYCLE:   215 TIME:   0.031 TIME LEFT:  2.00D  GRAD.:     4.669 HEAT: -38.87566
 CYCLE:   216 TIME:   0.023 TIME LEFT:  2.00D  GRAD.:     6.471 HEAT: -38.90893
 CYCLE:   217 TIME:   0.031 TIME LEFT:  2.00D  GRAD.:    13.513 HEAT: -38.91420
 CYCLE:   218 TIME:   0.047 TIME LEFT:  2.00D  GRAD.:    36.158 HEAT: -38.73661
 CYCLE:   219 TIME:   0.023 TIME LEFT:  2.00D  GRAD.:     3.450 HEAT: -38.97200
 CYCLE:   220 TIME:   0.031 TIME LEFT:  2.00D  GRAD.:     4.358 HEAT: -39.00009
 CYCLE:   221 TIME:   0.023 TIME LEFT:  2.00D  GRAD.:     6.954 HEAT: -39.04495
 CYCLE:   222 TIME:   0.031 TIME LEFT:  2.00D  GRAD.:    14.255 HEAT: -39.05831
 CYCLE:   223 TIME:   0.031 TIME LEFT:  2.00D  GRAD.:    16.638 HEAT: -39.08105
 CYCLE:   224 TIME:   0.023 TIME LEFT:  2.00D  GRAD.:     6.951 HEAT: -39.17226
 CYCLE:   225 TIME:   0.039 TIME LEFT:  2.00D  GRAD.:     8.246 HEAT: -39.21012
 CYCLE:   226 TIME:   0.023 TIME LEFT:  2.00D  GRAD.:     5.289 HEAT: -39.25370
 CYCLE:   227 TIME:   0.031 TIME LEFT:  2.00D  GRAD.:     7.285 HEAT: -39.32282
 CYCLE:   228 TIME:   0.023 TIME LEFT:  2.00D  GRAD.:    11.739 HEAT: -39.34096
 CYCLE:   229 TIME:   0.031 TIME LEFT:  2.00D  GRAD.:    10.218 HEAT: -39.40127
 CYCLE:   230 TIME:   0.023 TIME LEFT:  2.00D  GRAD.:    15.986 HEAT: -39.40387
 CYCLE:   231 TIME:   0.023 TIME LEFT:  2.00D  GRAD.:     7.714 HEAT: -39.48466
 CYCLE:   232 TIME:   0.031 TIME LEFT:  2.00D  GRAD.:     4.493 HEAT: -39.53937
 CYCLE:   233 TIME:   0.039 TIME LEFT:  2.00D  GRAD.:     6.055 HEAT: -39.61477
 CYCLE:   234 TIME:   0.031 TIME LEFT:  2.00D  GRAD.:    11.003 HEAT: -39.67041
 CYCLE:   235 TIME:   0.023 TIME LEFT:  2.00D  GRAD.:   107.858 HEAT: -37.75128
 CYCLE:   236 TIME:   0.031 TIME LEFT:  2.00D  GRAD.:     8.008 HEAT: -39.72765
 CYCLE:   237 TIME:   0.031 TIME LEFT:  2.00D  GRAD.:    15.424 HEAT: -39.73475
 CYCLE:   238 TIME:   0.031 TIME LEFT:  2.00D  GRAD.:    10.857 HEAT: -39.74793
 CYCLE:   239 TIME:   0.023 TIME LEFT:  2.00D  GRAD.:    16.892 HEAT: -39.80371
 CYCLE:   240 TIME:   0.031 TIME LEFT:  2.00D  GRAD.:     7.774 HEAT: -39.88100
 CYCLE:   241 TIME:   0.031 TIME LEFT:  2.00D  GRAD.:     5.227 HEAT: -39.89758
 CYCLE:   242 TIME:   0.023 TIME LEFT:  2.00D  GRAD.:     5.663 HEAT: -39.94291
 CYCLE:   243 TIME:   0.031 TIME LEFT:  2.00D  GRAD.:     9.398 HEAT: -39.96054
 CYCLE:   244 TIME:   0.031 TIME LEFT:  2.00D  GRAD.:    52.410 HEAT: -39.55389
 CYCLE:   245 TIME:   0.023 TIME LEFT:  2.00D  GRAD.:     5.823 HEAT: -40.04546
 CYCLE:   246 TIME:   0.031 TIME LEFT:  2.00D  GRAD.:     4.442 HEAT: -40.06378
 CYCLE:   247 TIME:   0.031 TIME LEFT:  2.00D  GRAD.:    21.252 HEAT: -39.99795
 CYCLE:   248 TIME:   0.031 TIME LEFT:  2.00D  GRAD.:    20.644 HEAT: -40.01471
 CYCLE:   249 TIME:   0.023 TIME LEFT:  2.00D  GRAD.:    67.393 HEAT: -39.37826
 CYCLE:   250 TIME:   0.031 TIME LEFT:  2.00D  GRAD.:    80.046 HEAT: -39.01185
 CYCLE:   251 TIME:   0.031 TIME LEFT:  2.00D  GRAD.:    28.127 HEAT: -39.82139
 CYCLE:   252 TIME:   0.031 TIME LEFT:  2.00D  GRAD.:    30.868 HEAT: -40.00219
 CYCLE:   253 TIME:   0.031 TIME LEFT:  2.00D  GRAD.:    16.576 HEAT: -40.01372
 CYCLE:   254 TIME:   0.031 TIME LEFT:  2.00D  GRAD.:     8.294 HEAT: -40.16257
 CYCLE:   255 TIME:   0.031 TIME LEFT:  2.00D  GRAD.:     7.533 HEAT: -40.17726
 CYCLE:   256 TIME:   0.023 TIME LEFT:  2.00D  GRAD.:     9.656 HEAT: -40.18846
 CYCLE:   257 TIME:   0.031 TIME LEFT:  2.00D  GRAD.:    12.063 HEAT: -40.19120
 CYCLE:   258 TIME:   0.023 TIME LEFT:  2.00D  GRAD.:    20.238 HEAT: -40.15471
 CYCLE:   259 TIME:   0.031 TIME LEFT:  2.00D  GRAD.:     9.560 HEAT: -40.27919
 CYCLE:   260 TIME:   0.023 TIME LEFT:  2.00D  GRAD.:     4.715 HEAT: -40.31686
 CYCLE:   261 TIME:   0.031 TIME LEFT:  2.00D  GRAD.:     3.384 HEAT: -40.34063
 CYCLE:   262 TIME:   0.031 TIME LEFT:  2.00D  GRAD.:    26.454 HEAT: -40.08714
 CYCLE:   263 TIME:   0.031 TIME LEFT:  2.00D  GRAD.:    16.546 HEAT: -40.30508
 CYCLE:   264 TIME:   0.031 TIME LEFT:  2.00D  GRAD.:    22.617 HEAT: -40.28460
 CYCLE:   265 TIME:   0.023 TIME LEFT:  2.00D  GRAD.:     5.113 HEAT: -40.38562
 CYCLE:   266 TIME:   0.031 TIME LEFT:  2.00D  GRAD.:     6.889 HEAT: -40.39199
 CYCLE:   267 TIME:   0.023 TIME LEFT:  2.00D  GRAD.:     9.354 HEAT: -40.41904
 CYCLE:   268 TIME:   0.031 TIME LEFT:  2.00D  GRAD.:     5.226 HEAT: -40.46244
 CYCLE:   269 TIME:   0.031 TIME LEFT:  2.00D  GRAD.:    18.470 HEAT: -40.42323
 CYCLE:   270 TIME:   0.031 TIME LEFT:  2.00D  GRAD.:     9.059 HEAT: -40.51581
 CYCLE:   271 TIME:   0.023 TIME LEFT:  2.00D  GRAD.:     7.863 HEAT: -40.52599
 CYCLE:   272 TIME:   0.023 TIME LEFT:  2.00D  GRAD.:     4.048 HEAT: -40.54420
 CYCLE:   273 TIME:   0.031 TIME LEFT:  2.00D  GRAD.:    28.172 HEAT: -40.31356
 CYCLE:   274 TIME:   0.031 TIME LEFT:  2.00D  GRAD.:     4.695 HEAT: -40.55817
 CYCLE:   275 TIME:   0.031 TIME LEFT:  2.00D  GRAD.:    18.893 HEAT: -40.51748
 CYCLE:   276 TIME:   0.023 TIME LEFT:  2.00D  GRAD.:     6.115 HEAT: -40.57879
 CYCLE:   277 TIME:   0.031 TIME LEFT:  2.00D  GRAD.:     5.992 HEAT: -40.58870
 CYCLE:   278 TIME:   0.023 TIME LEFT:  2.00D  GRAD.:     8.374 HEAT: -40.59256
 CYCLE:   279 TIME:   0.031 TIME LEFT:  2.00D  GRAD.:    27.948 HEAT: -40.23315
 CYCLE:   280 TIME:   0.031 TIME LEFT:  2.00D  GRAD.:     6.672 HEAT: -40.60965
 CYCLE:   281 TIME:   0.023 TIME LEFT:  2.00D  GRAD.:    17.641 HEAT: -40.57458
 CYCLE:   282 TIME:   0.031 TIME LEFT:  2.00D  GRAD.:     6.031 HEAT: -40.63366
 CYCLE:   283 TIME:   0.031 TIME LEFT:  2.00D  GRAD.:     6.519 HEAT: -40.64994
 CYCLE:   284 TIME:   0.023 TIME LEFT:  2.00D  GRAD.:     5.448 HEAT: -40.67768
 CYCLE:   285 TIME:   0.031 TIME LEFT:  2.00D  GRAD.:     6.176 HEAT: -40.70533
 CYCLE:   286 TIME:   0.023 TIME LEFT:  2.00D  GRAD.:     7.964 HEAT: -40.69259
 CYCLE:   287 TIME:   0.031 TIME LEFT:  2.00D  GRAD.:     4.605 HEAT: -40.73142
 CYCLE:   288 TIME:   0.023 TIME LEFT:  2.00D  GRAD.:     6.298 HEAT: -40.72947
 CYCLE:   289 TIME:   0.031 TIME LEFT:  2.00D  GRAD.:     2.690 HEAT: -40.75196
 CYCLE:   290 TIME:   0.031 TIME LEFT:  2.00D  GRAD.:    15.296 HEAT: -40.67443
 CYCLE:   291 TIME:   0.031 TIME LEFT:  2.00D  GRAD.:    10.797 HEAT: -40.76644
 CYCLE:   292 TIME:   0.023 TIME LEFT:  2.00D  GRAD.:    13.166 HEAT: -40.76416
 CYCLE:   293 TIME:   0.031 TIME LEFT:  2.00D  GRAD.:     3.453 HEAT: -40.79804
 CYCLE:   294 TIME:   0.023 TIME LEFT:  2.00D  GRAD.:     4.331 HEAT: -40.80971
 CYCLE:   295 TIME:   0.031 TIME LEFT:  2.00D  GRAD.:    19.049 HEAT: -40.71349
 CYCLE:   296 TIME:   0.031 TIME LEFT:  2.00D  GRAD.:     5.296 HEAT: -40.81125
 CYCLE:   297 TIME:   0.023 TIME LEFT:  2.00D  GRAD.:    47.974 HEAT: -40.42667
 CYCLE:   298 TIME:   0.031 TIME LEFT:  2.00D  GRAD.:     7.750 HEAT: -40.83574
 CYCLE:   299 TIME:   0.023 TIME LEFT:  2.00D  GRAD.:     7.630 HEAT: -40.84693
 CYCLE:   300 TIME:   0.031 TIME LEFT:  2.00D  GRAD.:    29.811 HEAT: -40.52211
 CYCLE:   301 TIME:   0.031 TIME LEFT:  2.00D  GRAD.:     9.122 HEAT: -40.86364
 CYCLE:   302 TIME:   0.023 TIME LEFT:  2.00D  GRAD.:     9.688 HEAT: -40.87175
 CYCLE:   303 TIME:   0.031 TIME LEFT:  2.00D  GRAD.:     4.946 HEAT: -40.88977
 CYCLE:   304 TIME:   0.023 TIME LEFT:  2.00D  GRAD.:     5.421 HEAT: -40.90081
 CYCLE:   305 TIME:   0.031 TIME LEFT:  2.00D  GRAD.:     9.448 HEAT: -40.87823
 CYCLE:   306 TIME:   0.031 TIME LEFT:  2.00D  GRAD.:     6.329 HEAT: -40.92109
 CYCLE:   307 TIME:   0.023 TIME LEFT:  2.00D  GRAD.:    12.357 HEAT: -40.91242
 CYCLE:   308 TIME:   0.023 TIME LEFT:  2.00D  GRAD.:     2.208 HEAT: -40.94172
 CYCLE:   309 TIME:   0.031 TIME LEFT:  2.00D  GRAD.:     2.095 HEAT: -40.94900
 CYCLE:   310 TIME:   0.031 TIME LEFT:  2.00D  GRAD.:    27.277 HEAT: -40.71601
 CYCLE:   311 TIME:   0.031 TIME LEFT:  2.00D  GRAD.:     7.676 HEAT: -40.95243
 CYCLE:   312 TIME:   0.031 TIME LEFT:  2.00D  GRAD.:   226.783 HEAT: -31.78523
 CYCLE:   313 TIME:   0.031 TIME LEFT:  2.00D  GRAD.:    27.579 HEAT: -40.72561
 CYCLE:   314 TIME:   0.031 TIME LEFT:  2.00D  GRAD.:     9.858 HEAT: -40.94605
 CYCLE:   315 TIME:   0.023 TIME LEFT:  2.00D  GRAD.:    42.547 HEAT: -40.19833
 CYCLE:   316 TIME:   0.031 TIME LEFT:  2.00D  GRAD.:     3.312 HEAT: -40.96997
 CYCLE:   317 TIME:   0.031 TIME LEFT:  2.00D  GRAD.:    11.363 HEAT: -40.96091
 CYCLE:   318 TIME:   0.023 TIME LEFT:  2.00D  GRAD.:     6.191 HEAT: -40.98687
 CYCLE:   319 TIME:   0.023 TIME LEFT:  2.00D  GRAD.:     5.470 HEAT: -40.99354
 CYCLE:   320 TIME:   0.031 TIME LEFT:  2.00D  GRAD.:     7.153 HEAT: -41.00601
 CYCLE:   321 TIME:   0.031 TIME LEFT:  2.00D  GRAD.:    25.153 HEAT: -40.71033
 CYCLE:   322 TIME:   0.023 TIME LEFT:  2.00D  GRAD.:    17.608 HEAT: -40.97527
 CYCLE:   323 TIME:   0.031 TIME LEFT:  2.00D  GRAD.:    11.940 HEAT: -41.01168
 CYCLE:   324 TIME:   0.023 TIME LEFT:  2.00D  GRAD.:     3.381 HEAT: -41.03779
 CYCLE:   325 TIME:   0.023 TIME LEFT:  2.00D  GRAD.:     2.772 HEAT: -41.04247
 CYCLE:   326 TIME:   0.031 TIME LEFT:  2.00D  GRAD.:    12.112 HEAT: -41.03075
 CYCLE:   327 TIME:   0.023 TIME LEFT:  2.00D  GRAD.:     4.164 HEAT: -41.06762
 CYCLE:   328 TIME:   0.031 TIME LEFT:  2.00D  GRAD.:     2.329 HEAT: -41.07006
 CYCLE:   329 TIME:   0.023 TIME LEFT:  2.00D  GRAD.:     1.743 HEAT: -41.07465
 CYCLE:   330 TIME:   0.039 TIME LEFT:  2.00D  GRAD.:    46.877 HEAT: -40.70966
 CYCLE:   331 TIME:   0.031 TIME LEFT:  2.00D  GRAD.:    10.187 HEAT: -41.03587
 CYCLE:   332 TIME:   0.023 TIME LEFT:  2.00D  GRAD.:    45.981 HEAT: -40.72860
 CYCLE:   333 TIME:   0.039 TIME LEFT:  2.00D  GRAD.:    15.908 HEAT: -40.99591
 CYCLE:   334 TIME:   0.031 TIME LEFT:  2.00D  GRAD.:    17.110 HEAT: -41.06761
 CYCLE:   335 TIME:   0.023 TIME LEFT:  2.00D  GRAD.:     5.701 HEAT: -41.10190
 CYCLE:   336 TIME:   0.023 TIME LEFT:  2.00D  GRAD.:     3.203 HEAT: -41.10404
 CYCLE:   337 TIME:   0.031 TIME LEFT:  2.00D  GRAD.:     2.415 HEAT: -41.10833
 CYCLE:   338 TIME:   0.023 TIME LEFT:  2.00D  GRAD.:     4.852 HEAT: -41.11755
 CYCLE:   339 TIME:   0.031 TIME LEFT:  2.00D  GRAD.:     7.370 HEAT: -41.12519
 CYCLE:   340 TIME:   0.023 TIME LEFT:  2.00D  GRAD.:     1.697 HEAT: -41.13600
 CYCLE:   341 TIME:   0.023 TIME LEFT:  2.00D  GRAD.:     1.983 HEAT: -41.14212
 CYCLE:   342 TIME:   0.031 TIME LEFT:  2.00D  GRAD.:     8.917 HEAT: -41.13078
 CYCLE:   343 TIME:   0.031 TIME LEFT:  2.00D  GRAD.:     7.709 HEAT: -41.15697
 CYCLE:   344 TIME:   0.023 TIME LEFT:  2.00D  GRAD.:     4.158 HEAT: -41.16084
 CYCLE:   345 TIME:   0.031 TIME LEFT:  2.00D  GRAD.:     1.592 HEAT: -41.16795
 CYCLE:   346 TIME:   0.023 TIME LEFT:  2.00D  GRAD.:    10.420 HEAT: -41.13108
 CYCLE:   347 TIME:   0.031 TIME LEFT:  2.00D  GRAD.:     1.941 HEAT: -41.17396
 CYCLE:   348 TIME:   0.031 TIME LEFT:  2.00D  GRAD.:     2.460 HEAT: -41.17851
 CYCLE:   349 TIME:   0.023 TIME LEFT:  2.00D  GRAD.:     3.903 HEAT: -41.18677
 CYCLE:   350 TIME:   0.031 TIME LEFT:  2.00D  GRAD.:     5.840 HEAT: -41.20010
 CYCLE:   351 TIME:   0.031 TIME LEFT:  2.00D  GRAD.:    13.682 HEAT: -41.17373
 CYCLE:   352 TIME:   0.023 TIME LEFT:  2.00D  GRAD.:    16.390 HEAT: -41.16664
 CYCLE:   353 TIME:   0.031 TIME LEFT:  2.00D  GRAD.:     4.121 HEAT: -41.23116
 CYCLE:   354 TIME:   0.031 TIME LEFT:  2.00D  GRAD.:     4.192 HEAT: -41.24186
 CYCLE:   355 TIME:   0.023 TIME LEFT:  2.00D  GRAD.:     2.805 HEAT: -41.25293
 CYCLE:   356 TIME:   0.023 TIME LEFT:  2.00D  GRAD.:     3.884 HEAT: -41.26318
 CYCLE:   357 TIME:   0.031 TIME LEFT:  2.00D  GRAD.:     4.577 HEAT: -41.27131
 CYCLE:   358 TIME:   0.031 TIME LEFT:  2.00D  GRAD.:     6.080 HEAT: -41.27956
 CYCLE:   359 TIME:   0.023 TIME LEFT:  2.00D  GRAD.:     6.465 HEAT: -41.29514
 CYCLE:   360 TIME:   0.023 TIME LEFT:  2.00D  GRAD.:     4.074 HEAT: -41.31215
 CYCLE:   361 TIME:   0.031 TIME LEFT:  2.00D  GRAD.:     9.849 HEAT: -41.29296
 CYCLE:   362 TIME:   0.023 TIME LEFT:  2.00D  GRAD.:     3.449 HEAT: -41.33016
 CYCLE:   363 TIME:   0.031 TIME LEFT:  2.00D  GRAD.:     3.377 HEAT: -41.33321
 CYCLE:   364 TIME:   0.023 TIME LEFT:  2.00D  GRAD.:     1.905 HEAT: -41.33740
 CYCLE:   365 TIME:   0.031 TIME LEFT:  2.00D  GRAD.:     4.583 HEAT: -41.34679
 CYCLE:   366 TIME:   0.023 TIME LEFT:  2.00D  GRAD.:     3.698 HEAT: -41.35343
 CYCLE:   367 TIME:   0.023 TIME LEFT:  2.00D  GRAD.:     7.255 HEAT: -41.34081
 CYCLE:   368 TIME:   0.031 TIME LEFT:  2.00D  GRAD.:    11.329 HEAT: -41.33510
 CYCLE:   369 TIME:   0.031 TIME LEFT:  2.00D  GRAD.:    10.962 HEAT: -41.34797
 CYCLE:   370 TIME:   0.023 TIME LEFT:  2.00D  GRAD.:     2.846 HEAT: -41.36871
 CYCLE:   371 TIME:   0.031 TIME LEFT:  2.00D  GRAD.:     1.652 HEAT: -41.37237
 CYCLE:   372 TIME:   0.023 TIME LEFT:  2.00D  GRAD.:     1.085 HEAT: -41.37396
 CYCLE:   373 TIME:   0.031 TIME LEFT:  2.00D  GRAD.:     3.251 HEAT: -41.37657
 CYCLE:   374 TIME:   0.023 TIME LEFT:  2.00D  GRAD.:     2.335 HEAT: -41.38028
 CYCLE:   375 TIME:   0.031 TIME LEFT:  2.00D  GRAD.:     3.060 HEAT: -41.38158
 CYCLE:   376 TIME:   0.031 TIME LEFT:  2.00D  GRAD.:     2.291 HEAT: -41.38747
 CYCLE:   377 TIME:   0.023 TIME LEFT:  2.00D  GRAD.:     2.396 HEAT: -41.39046
 CYCLE:   378 TIME:   0.023 TIME LEFT:  2.00D  GRAD.:     1.499 HEAT: -41.39383
 CYCLE:   379 TIME:   0.031 TIME LEFT:  2.00D  GRAD.:     4.506 HEAT: -41.39731
 CYCLE:   380 TIME:   0.023 TIME LEFT:  2.00D  GRAD.:     3.268 HEAT: -41.40195
 CYCLE:   381 TIME:   0.031 TIME LEFT:  2.00D  GRAD.:     2.026 HEAT: -41.40369
 CYCLE:   382 TIME:   0.023 TIME LEFT:  2.00D  GRAD.:     1.411 HEAT: -41.40799
 CYCLE:   383 TIME:   0.031 TIME LEFT:  2.00D  GRAD.:     5.910 HEAT: -41.40847
 CYCLE:   384 TIME:   0.023 TIME LEFT:  2.00D  GRAD.:     5.550 HEAT: -41.40355
 CYCLE:   385 TIME:   0.031 TIME LEFT:  2.00D  GRAD.:    22.619 HEAT: -41.33089
 CYCLE:   386 TIME:   0.023 TIME LEFT:  2.00D  GRAD.:     4.760 HEAT: -41.41609
 CYCLE:   387 TIME:   0.031 TIME LEFT:  2.00D  GRAD.:     4.927 HEAT: -41.40343
 CYCLE:   388 TIME:   0.031 TIME LEFT:  2.00D  GRAD.:     3.093 HEAT: -41.42127
 CYCLE:   389 TIME:   0.023 TIME LEFT:  2.00D  GRAD.:     2.113 HEAT: -41.42347
 CYCLE:   390 TIME:   0.023 TIME LEFT:  2.00D  GRAD.:     1.287 HEAT: -41.42551
 CYCLE:   391 TIME:   0.031 TIME LEFT:  2.00D  GRAD.:     2.684 HEAT: -41.43366
 CYCLE:   392 TIME:   0.023 TIME LEFT:  2.00D  GRAD.:     3.441 HEAT: -41.44236
 CYCLE:   393 TIME:   0.031 TIME LEFT:  2.00D  GRAD.:     5.551 HEAT: -41.44635
 CYCLE:   394 TIME:   0.031 TIME LEFT:  2.00D  GRAD.:    34.222 HEAT: -41.25933
 CYCLE:   395 TIME:   0.031 TIME LEFT:  2.00D  GRAD.:     2.591 HEAT: -41.45880
 CYCLE:   396 TIME:   0.031 TIME LEFT:  2.00D  GRAD.:     3.927 HEAT: -41.46470
 CYCLE:   397 TIME:   0.023 TIME LEFT:  2.00D  GRAD.:     3.747 HEAT: -41.48286
 CYCLE:   398 TIME:   0.031 TIME LEFT:  2.00D  GRAD.:     4.515 HEAT: -41.49162
 CYCLE:   399 TIME:   0.031 TIME LEFT:  2.00D  GRAD.:     6.094 HEAT: -41.49145
 CYCLE:   400 TIME:   0.023 TIME LEFT:  2.00D  GRAD.:     3.694 HEAT: -41.51144
 CYCLE:   401 TIME:   0.023 TIME LEFT:  2.00D  GRAD.:     2.552 HEAT: -41.51854
 CYCLE:   402 TIME:   0.031 TIME LEFT:  2.00D  GRAD.:     2.498 HEAT: -41.52549
 CYCLE:   403 TIME:   0.023 TIME LEFT:  2.00D  GRAD.:     6.296 HEAT: -41.52711
 CYCLE:   404 TIME:   0.031 TIME LEFT:  2.00D  GRAD.:    11.247 HEAT: -41.51194
 CYCLE:   405 TIME:   0.031 TIME LEFT:  2.00D  GRAD.:     2.330 HEAT: -41.54033
 CYCLE:   406 TIME:   0.023 TIME LEFT:  2.00D  GRAD.:     2.529 HEAT: -41.54368
 CYCLE:   407 TIME:   0.031 TIME LEFT:  2.00D  GRAD.:     1.512 HEAT: -41.55047
 CYCLE:   408 TIME:   0.023 TIME LEFT:  2.00D  GRAD.:     2.671 HEAT: -41.55682
 CYCLE:   409 TIME:   0.031 TIME LEFT:  2.00D  GRAD.:     2.896 HEAT: -41.56140
 CYCLE:   410 TIME:   0.023 TIME LEFT:  2.00D  GRAD.:     2.348 HEAT: -41.56495
 CYCLE:   411 TIME:   0.031 TIME LEFT:  2.00D  GRAD.:     4.886 HEAT: -41.56209
 CYCLE:   412 TIME:   0.031 TIME LEFT:  2.00D  GRAD.:     2.376 HEAT: -41.57048
 CYCLE:   413 TIME:   0.031 TIME LEFT:  2.00D  GRAD.:     1.410 HEAT: -41.57202
 CYCLE:   414 TIME:   0.023 TIME LEFT:  2.00D  GRAD.:     1.639 HEAT: -41.57352
 CYCLE:   415 TIME:   0.031 TIME LEFT:  2.00D  GRAD.:     2.401 HEAT: -41.57825
 CYCLE:   416 TIME:   0.023 TIME LEFT:  2.00D  GRAD.:     4.851 HEAT: -41.58421
 CYCLE:   417 TIME:   0.031 TIME LEFT:  2.00D  GRAD.:     6.371 HEAT: -41.58363
 CYCLE:   418 TIME:   0.023 TIME LEFT:  2.00D  GRAD.:     1.594 HEAT: -41.59090
 CYCLE:   419 TIME:   0.023 TIME LEFT:  2.00D  GRAD.:     1.220 HEAT: -41.59272
 CYCLE:   420 TIME:   0.031 TIME LEFT:  2.00D  GRAD.:     4.878 HEAT: -41.58944
 CYCLE:   421 TIME:   0.031 TIME LEFT:  2.00D  GRAD.:     3.609 HEAT: -41.59570
 CYCLE:   422 TIME:   0.023 TIME LEFT:  2.00D  GRAD.:     2.674 HEAT: -41.59695
 CYCLE:   423 TIME:   0.023 TIME LEFT:  2.00D  GRAD.:     2.403 HEAT: -41.60107
 CYCLE:   424 TIME:   0.031 TIME LEFT:  2.00D  GRAD.:     4.510 HEAT: -41.59780
 CYCLE:   425 TIME:   0.023 TIME LEFT:  2.00D  GRAD.:     3.154 HEAT: -41.60463
 CYCLE:   426 TIME:   0.031 TIME LEFT:  2.00D  GRAD.:     4.057 HEAT: -41.60080
 CYCLE:   427 TIME:   0.023 TIME LEFT:  2.00D  GRAD.:     1.170 HEAT: -41.60784
 CYCLE:   428 TIME:   0.031 TIME LEFT:  2.00D  GRAD.:     5.340 HEAT: -41.60136
 CYCLE:   429 TIME:   0.031 TIME LEFT:  2.00D  GRAD.:     2.708 HEAT: -41.60681
 CYCLE:   430 TIME:   0.031 TIME LEFT:  2.00D  GRAD.:     3.196 HEAT: -41.61293
 CYCLE:   431 TIME:   0.031 TIME LEFT:  2.00D  GRAD.:     2.091 HEAT: -41.61556
 CYCLE:   432 TIME:   0.023 TIME LEFT:  2.00D  GRAD.:     2.077 HEAT: -41.61644
 CYCLE:   433 TIME:   0.031 TIME LEFT:  2.00D  GRAD.:     2.995 HEAT: -41.61916
 CYCLE:   434 TIME:   0.023 TIME LEFT:  2.00D  GRAD.:     2.332 HEAT: -41.62186
 CYCLE:   435 TIME:   0.023 TIME LEFT:  2.00D  GRAD.:     1.283 HEAT: -41.62344
 CYCLE:   436 TIME:   0.031 TIME LEFT:  2.00D  GRAD.:     1.063 HEAT: -41.62501
 CYCLE:   437 TIME:   0.031 TIME LEFT:  2.00D  GRAD.:     1.980 HEAT: -41.62646
 CYCLE:   438 TIME:   0.023 TIME LEFT:  2.00D  GRAD.:     2.098 HEAT: -41.62862
 CYCLE:   439 TIME:   0.031 TIME LEFT:  2.00D  GRAD.:     2.727 HEAT: -41.63184
 CYCLE:   440 TIME:   0.023 TIME LEFT:  2.00D  GRAD.:     3.064 HEAT: -41.63495
 CYCLE:   441 TIME:   0.023 TIME LEFT:  2.00D  GRAD.:     2.241 HEAT: -41.63813
 CYCLE:   442 TIME:   0.031 TIME LEFT:  2.00D  GRAD.:     2.568 HEAT: -41.64040
 CYCLE:   443 TIME:   0.023 TIME LEFT:  2.00D  GRAD.:     3.809 HEAT: -41.64531
 CYCLE:   444 TIME:   0.031 TIME LEFT:  2.00D  GRAD.:     2.328 HEAT: -41.65025
 CYCLE:   445 TIME:   0.023 TIME LEFT:  2.00D  GRAD.:     2.189 HEAT: -41.65324
 CYCLE:   446 TIME:   0.031 TIME LEFT:  2.00D  GRAD.:     3.707 HEAT: -41.65519
 CYCLE:   447 TIME:   0.023 TIME LEFT:  2.00D  GRAD.:     1.702 HEAT: -41.65896
 CYCLE:   448 TIME:   0.031 TIME LEFT:  2.00D  GRAD.:     4.041 HEAT: -41.65723
 CYCLE:   449 TIME:   0.023 TIME LEFT:  2.00D  GRAD.:     6.500 HEAT: -41.65202
 CYCLE:   450 TIME:   0.023 TIME LEFT:  2.00D  GRAD.:     3.872 HEAT: -41.65652
 CYCLE:   451 TIME:   0.031 TIME LEFT:  2.00D  GRAD.:     1.307 HEAT: -41.66229
 CYCLE:   452 TIME:   0.031 TIME LEFT:  2.00D  GRAD.:     5.519 HEAT: -41.65564
 CYCLE:   453 TIME:   0.023 TIME LEFT:  2.00D  GRAD.:     1.842 HEAT: -41.66324
 CYCLE:   454 TIME:   0.031 TIME LEFT:  2.00D  GRAD.:     5.103 HEAT: -41.65047
 CYCLE:   455 TIME:   0.023 TIME LEFT:  2.00D  GRAD.:     2.711 HEAT: -41.66193
 CYCLE:   456 TIME:   0.031 TIME LEFT:  2.00D  GRAD.:     6.446 HEAT: -41.65565
 CYCLE:   457 TIME:   0.031 TIME LEFT:  2.00D  GRAD.:     6.773 HEAT: -41.65480
 CYCLE:   458 TIME:   0.023 TIME LEFT:  2.00D  GRAD.:    23.690 HEAT: -41.56503
 CYCLE:   459 TIME:   0.031 TIME LEFT:  2.00D  GRAD.:    21.936 HEAT: -41.58259
 CYCLE:   460 TIME:   0.023 TIME LEFT:  2.00D  GRAD.:     3.789 HEAT: -41.66028
 CYCLE:   461 TIME:   0.031 TIME LEFT:  2.00D  GRAD.:     7.304 HEAT: -41.65361
 CYCLE:   462 TIME:   0.031 TIME LEFT:  2.00D  GRAD.:     0.865 HEAT: -41.66747

 -------------------------------------------------------------------------------
 PM7 XYZ

 Lipophilicity_1969 - geometry optimisation


     HERBERTS TEST WAS SATISFIED IN BFGS                      
     SCF FIELD WAS ACHIEVED                                   


                              PM7 CALCULATION
                                                       MOPAC v23.0.3 Linux
                                                       Fri Jul 25 18:48:01 2025




          FINAL HEAT OF FORMATION =        -41.66725 KCAL/MOL =    -174.33577 KJ/MOL


          COSMO AREA              =        353.28 SQUARE ANGSTROMS
          COSMO VOLUME            =        389.42 CUBIC ANGSTROMS

          GRADIENT NORM           =          0.86525          =       0.13513 PER ATOM
          IONIZATION POTENTIAL    =          9.086348 EV
          HOMO LUMO ENERGIES (EV) =         -9.086 -0.814
          NO. OF FILLED LEVELS    =         63
          MOLECULAR WEIGHT        =        337.3527         POINT GROUP:  C1  

          MOLECULAR DIMENSIONS (Angstroms)

            Atom       Atom       Distance
            H    39    H    27    12.53666
            H    35    F     6     8.77938
            H    32    H    37     6.44832


          SCF CALCULATIONS        =        463

          WALL-CLOCK TIME         =     13.375 SECONDS
          COMPUTATION TIME        =          4 MINUTES AND 26.418 SECONDS




   ATOM   CHEMICAL          X               Y               Z
  NUMBER   SYMBOL      (ANGSTROMS)     (ANGSTROMS)     (ANGSTROMS)

     1       C         -4.20823693  *  -2.06991323  *   0.06466771  *
     2       O         -3.29163005  *  -1.02314540  *   0.36124899  *
     3       C         -3.41730557  *   0.13188908  *  -0.33241754  *
     4       C         -4.36544617  *   0.38229877  *  -1.32296889  *
     5       C         -4.32395698  *   1.63485612  *  -1.93529464  *
     6       F         -5.21312687  *   1.89288338  *  -2.88166669  *
     7       C         -3.40034126  *   2.62215093  *  -1.60427395  *
     8       C         -2.47288550  *   2.34173569  *  -0.59991193  *
     9       C         -2.46932029  *   1.10952903  *   0.04696481  *
    10       C         -1.51067982  *   0.81122274  *   1.10525766  *
    11       C         -1.45499236  *   1.60708846  *   2.26344709  *
    12       N         -0.60350348  *   1.35614959  *   3.27245052  *
    13       C          0.22897305  *   0.30394030  *   3.16950589  *
    14       C          0.24434152  *  -0.53702530  *   2.04865610  *
    15       C          1.21899470  *  -1.67699420  *   1.94799404  *
    16       N          2.42871024  *  -1.25052024  *   1.23751638  *
    17       C          2.44988089  *  -1.28013740  *  -0.13630658  *
    18       O          1.57027480  *  -1.81185504  *  -0.78681315  *
    19       C          3.64660800  *  -0.66134738  *  -0.80737538  *
    20       C          3.82868648  *  -0.84198405  *  -2.18150757  *
    21       C          4.93598013  *  -0.24270575  *  -2.78321006  *
    22       C          5.80851660  *   0.51228375  *  -2.00498900  *
    23       C          5.54421651  *   0.64661205  *  -0.63290462  *
    24       N          4.48550568  *   0.06900007  *  -0.04364912  *
    25       C         -0.64063606  *  -0.27575507  *   1.00348732  *
    26       H         -4.13751380  *  -2.37258185  *  -0.98453511  *
    27       H         -5.22788102  *  -1.77950713  *   0.33504569  *
    28       H         -3.85033278  *  -2.87586906  *   0.72117919  *
    29       H         -5.10487915  *  -0.35635253  *  -1.61165186  *
    30       H         -3.39479020  *   3.58405980  *  -2.10963248  *
    31       H         -1.73460729  *   3.09724209  *  -0.32092575  *
    32       H         -2.11603538  *   2.47094278  *   2.39615539  *
    33       H          0.89989157  *   0.14580242  *   4.02035580  *
    34       H          0.75757517  *  -2.54235124  *   1.40455598  *
    35       H          1.51273919  *  -2.05684141  *   2.95366249  *
    36       H          3.10562156  *  -0.69429345  *   1.74609138  *
    37       H          3.11187726  *  -1.43283168  *  -2.75539304  *
    38       H          5.11196116  *  -0.36412441  *  -3.85175955  *
    39       H          6.67820251  *   0.99342335  *  -2.44415749  *
    40       H          6.19349966  *   1.23614331  *   0.02451678  *
    41       H         -0.64609547  *  -0.90975640  *   0.11011942  *

                             CARTESIAN COORDINATES

   1    C       -4.208236927    -2.069913234     0.064667710
   2    O       -3.291630052    -1.023145403     0.361248986
   3    C       -3.417305567     0.131889080    -0.332417545
   4    C       -4.365446166     0.382298771    -1.322968886
   5    C       -4.323956978     1.634856119    -1.935294644
   6    F       -5.213126866     1.892883378    -2.881666690
   7    C       -3.400341257     2.622150934    -1.604273952
   8    C       -2.472885498     2.341735692    -0.599911931
   9    C       -2.469320293     1.109529029     0.046964814
  10    C       -1.510679819     0.811222739     1.105257664
  11    C       -1.454992365     1.607088458     2.263447091
  12    N       -0.603503484     1.356149587     3.272450522
  13    C        0.228973054     0.303940303     3.169505890
  14    C        0.244341518    -0.537025298     2.048656100
  15    C        1.218994704    -1.676994198     1.947994038
  16    N        2.428710239    -1.250520241     1.237516378
  17    C        2.449880885    -1.280137402    -0.136306577
  18    O        1.570274805    -1.811855040    -0.786813150
  19    C        3.646608004    -0.661347375    -0.807375380
  20    C        3.828686476    -0.841984049    -2.181507570
  21    C        4.935980126    -0.242705749    -2.783210057
  22    C        5.808516597     0.512283748    -2.004989000
  23    C        5.544216510     0.646612052    -0.632904616
  24    N        4.485505680     0.069000068    -0.043649123
  25    C       -0.640636058    -0.275755066     1.003487320
  26    H       -4.137513805    -2.372581853    -0.984535106
  27    H       -5.227881018    -1.779507135     0.335045690
  28    H       -3.850332783    -2.875869056     0.721179191
  29    H       -5.104879146    -0.356352533    -1.611651864
  30    H       -3.394790198     3.584059805    -2.109632482
  31    H       -1.734607288     3.097242086    -0.320925754
  32    H       -2.116035383     2.470942777     2.396155388
  33    H        0.899891573     0.145802423     4.020355796
  34    H        0.757575168    -2.542351237     1.404555977
  35    H        1.512739186    -2.056841411     2.953662488
  36    H        3.105621565    -0.694293448     1.746091375
  37    H        3.111877257    -1.432831676    -2.755393036
  38    H        5.111961158    -0.364124412    -3.851759554
  39    H        6.678202509     0.993423347    -2.444157489
  40    H        6.193499659     1.236143309     0.024516785
  41    H       -0.646095475    -0.909756400     0.110119423


           Empirical Formula: C19 H16 N3 O2 F  =    41 atoms



      MOLECULAR POINT GROUP   :   C1  


                  EIGENVALUES  
 -41.14956 -36.98443 -36.05587 -35.72078 -31.36757 -30.50776 -30.29561 -28.92273
 -28.78020 -27.74907 -26.90695 -26.04293 -25.62121 -24.65414 -24.38480 -22.98907
 -22.49896 -22.43985 -21.76615 -21.17092 -20.61446 -19.95990 -18.88259 -18.58345
 -17.54048 -17.47864 -17.22038 -16.94178 -16.80711 -16.60582 -16.43904 -16.15498
 -16.02773 -15.98357 -15.64047 -15.53548 -15.31288 -15.08471 -14.79052 -14.48415
 -14.38103 -14.08847 -13.91122 -13.81468 -13.66985 -13.63333 -13.52214 -13.12697
 -13.04133 -12.77401 -12.54149 -12.34308 -11.90593 -11.20734 -11.06131 -10.75798
 -10.54987 -10.45121 -10.32537 -10.19716  -9.82792  -9.69993  -9.08635  -0.81440
  -0.42821  -0.41176  -0.09612  -0.00197   0.22420   1.24656   1.49500   1.91114
   2.15472   2.20266   2.48349   2.84323   2.85872   3.39136   3.51370   3.59161
   3.71133   3.89727   4.00236   4.07084   4.10871   4.18015   4.23607   4.36826
   4.45309   4.51717   4.68352   4.77676   4.81670   4.85962   4.92419   5.00633
   5.09783   5.16310   5.18265   5.24074   5.35192   5.36737   5.42379   5.49195
   5.49836   5.59150   5.66647   5.71110   5.77543   5.84545   5.95182   5.98880
   6.11896   6.13721   6.32773   6.67304


              NET ATOMIC CHARGES AND DIPOLE CONTRIBUTIONS

  ATOM NO.   TYPE          CHARGE      No. of ELECS.   s-Pop       p-Pop       
    1          C          -0.203680        4.2037     1.08895     3.11473
    2          O          -0.295334        6.2953     1.86602     4.42931
    3          C           0.289902        3.7101     1.08606     2.62404
    4          C          -0.370229        4.3702     1.07098     3.29925
    5          C           0.276023        3.7240     1.09807     2.62591
    6          F          -0.177497        7.1775     1.96600     5.21150
    7          C          -0.291861        4.2919     1.07339     3.21847
    8          C          -0.036717        4.0367     1.08635     2.95037
    9          C          -0.154064        4.1541     1.04946     3.10460
   10          C          -0.073417        4.0734     1.06258     3.01083
   11          C           0.041616        3.9584     1.09916     2.85922
   12          N          -0.369051        5.3691     1.73990     3.62915
   13          C           0.035078        3.9649     1.09657     2.86835
   14          C          -0.137751        4.1378     1.07765     3.06010
   15          C          -0.057447        4.0574     1.06049     2.99695
   16          N          -0.552716        5.5527     1.56246     3.99025
   17          C           0.573227        3.4268     1.07087     2.35590
   18          O          -0.529316        6.5293     1.88160     4.64772
   19          C           0.060696        3.9393     1.08812     2.85119
   20          C          -0.170080        4.1701     1.09442     3.07566
   21          C          -0.092945        4.0929     1.08900     3.00395
   22          C          -0.213643        4.2136     1.09085     3.12279
   23          C           0.049936        3.9501     1.09530     2.85476
   24          N          -0.373655        5.3737     1.73816     3.63550
   25          C          -0.069389        4.0694     1.09715     2.97224
   26          H           0.139781        0.8602     0.86022
   27          H           0.137086        0.8629     0.86291
   28          H           0.157152        0.8428     0.84285
   29          H           0.184007        0.8160     0.81599
   30          H           0.178356        0.8216     0.82164
   31          H           0.163949        0.8361     0.83605
   32          H           0.175168        0.8248     0.82483
   33          H           0.166807        0.8332     0.83319
   34          H           0.177363        0.8226     0.82264
   35          H           0.147549        0.8525     0.85245
   36          H           0.331689        0.6683     0.66831
   37          H           0.192216        0.8078     0.80778
   38          H           0.162025        0.8380     0.83798
   39          H           0.165602        0.8344     0.83440
   40          H           0.173642        0.8264     0.82636
   41          H           0.189925        0.8101     0.81008
 DIPOLE           X         Y         Z       TOTAL
 POINT-CHG.     2.388    -1.163    -0.230     2.666
 HYBRID        -0.056    -0.260    -1.243     1.271
 SUM            2.331    -1.423    -1.473     3.103


          ATOMIC ORBITAL ELECTRON POPULATIONS

     Atom    s        px        py        pz   
    1  C   1.08895   1.02778   0.93784   1.14911
    2  O   1.86602   1.54621   1.28186   1.60124
    3  C   1.08606   0.92022   0.83026   0.87356
    4  C   1.07098   1.12735   1.07438   1.09752
    5  C   1.09807   0.85226   0.94073   0.83292
    6  F   1.96600   1.65061   1.95590   1.60499
    7  C   1.07339   1.04297   1.09098   1.08453
    8  C   1.08635   0.99611   1.00701   0.94724
    9  C   1.04946   1.04220   1.00242   1.05998
   10  C   1.06258   1.00355   1.01337   0.99391
   11  C   1.09916   0.95113   1.01321   0.89489
   12  N   1.73990   1.10099   1.21285   1.31531
   13  C   1.09657   0.95814   0.89733   1.01288
   14  C   1.07765   1.02353   1.02511   1.01146
   15  C   1.06049   0.88585   1.03508   1.07603
   16  N   1.56246   1.26898   1.57779   1.14348
   17  C   1.07087   0.82130   0.75928   0.77532
   18  O   1.88160   1.46964   1.49930   1.67878
   19  C   1.08812   0.95518   0.94961   0.94639
   20  C   1.09442   1.03462   1.02460   1.01645
   21  C   1.08900   0.97104   0.95377   1.07914
   22  C   1.09085   1.06899   1.03740   1.01641
   23  C   1.09530   0.93256   0.94951   0.97270
   24  N   1.73816   1.09945   1.12030   1.41576
   25  C   1.09715   0.93725   0.99126   1.04373
   26  H   0.86022
   27  H   0.86291
   28  H   0.84285
   29  H   0.81599
   30  H   0.82164
   31  H   0.83605
   32  H   0.82483
   33  H   0.83319
   34  H   0.82264
   35  H   0.85245
   36  H   0.66831
   37  H   0.80778
   38  H   0.83798
   39  H   0.83440
   40  H   0.82636
   41  H   0.81008

 **********************
 *                    *
 * JOB ENDED NORMALLY *
 *                    *
 **********************



 TOTAL JOB TIME:            13.38 SECONDS

 == MOPAC DONE ==
