 *******************************************************************************
 **                                                                           **
 **                              MOPAC v23.0.3                                **
 **                                                                           **
 *******************************************************************************
 **          Digital Object Identifier (DOI): 10.5281/zenodo.6511958          **
 **    Visit the DOI location for information on how to cite this program.    **
 *******************************************************************************

                              PM7 CALCULATION RESULTS

 *******************************************************************************
 *  CALCULATION DONE:                                Fri Jul 25 19:12:12 2025  *
 *  PM7        - The PM7 Hamiltonian to be used
 *  XYZ        - CARTESIAN COORDINATE SYSTEM TO BE USED
 *  T=         - A TIME OF 172800.0 SECONDS REQUESTED
 *  DUMP=N     - RESTART FILE WRITTEN EVERY 7200.0 SECONDS REQUESTED
 *******************************************************************************
PM7 XYZ

 Lipophilicity_232 - geometry optimisation
   ATOM   CHEMICAL          X               Y               Z
  NUMBER   SYMBOL      (ANGSTROMS)     (ANGSTROMS)     (ANGSTROMS)

     1       O         -4.63951400  *  -5.94267500  *   0.74032200  *
     2       C         -3.47723200  *  -5.54569900  *   1.39779400  *
     3       C         -3.20281200  *  -5.99423100  *   2.69656000  *
     4       C         -2.04223600  *  -5.57442500  *   3.35098300  *
     5       C         -1.14744100  *  -4.71355900  *   2.70924000  *
     6       C         -1.39841500  *  -4.27501800  *   1.39963600  *
     7       N         -0.47813300  *  -3.36732800  *   0.76974700  *
     8       C         -0.31725000  *  -3.25491400  *  -0.65261700  *
     9       O         -0.52185300  *  -4.26102900  *  -1.38594400  *
    10       C          0.14428400  *  -1.98669700  *  -1.26611900  *
    11       C          0.91590400  *  -2.03281100  *  -2.43844300  *
    12       C          1.35865100  *  -0.85777500  *  -3.04520700  *
    13       C          1.03600100  *   0.38861700  *  -2.50550300  *
    14       O          1.51508500  *   1.53306100  *  -3.16693600  *
    15       C          1.38606900  *   2.88955400  *  -2.73216200  *
    16       C          2.57678200  *   3.31441000  *  -1.86225700  *
    17       C          2.54225400  *   2.69584200  *  -0.45806200  *
    18       N          3.64142900  *   3.23765100  *   0.37385600  *
    19       C          3.37195900  *   3.03828600  *   1.80468800  *
    20       C          3.94117100  *   1.68618800  *   2.19568800  *
    21       C          5.01812900  *   1.40148300  *   1.16691300  *
    22       C          4.90374100  *   2.51789000  *   0.13436200  *
    23       C          0.24519400  *   0.44520800  *  -1.34338200  *
    24       C         -0.20688000  *  -0.73375200  *  -0.71735100  *
    25       O         -1.01859900  *  -0.69384300  *   0.43131800  *
    26       C         -1.51227900  *   0.48591900  *   1.06605700  *
    27       C         -2.55415200  *   1.15721800  *   0.21173000  *
    28       C         -3.63123700  *   0.41446100  *  -0.29781800  *
    29       C         -4.60199200  *   1.03409400  *  -1.08993600  *
    30       C         -4.50998600  *   2.39925700  *  -1.37308000  *
    31       C         -3.44598500  *   3.15156200  *  -0.85974700  *
    32       C         -2.47424700  *   2.53279700  *  -0.06227100  *
    33       C         -3.35319300  *   4.55885000  *  -1.14776400  *
    34       N         -3.27815300  *   5.69027100  *  -1.37876500  *
    35       C         -2.58039400  *  -4.68551400  *   0.75434300  *
    36       H         -5.30846600  *  -6.56851100  *   1.17482000  *
    37       H         -3.89171900  *  -6.65889300  *   3.20225200  *
    38       H         -1.83731000  *  -5.91387600  *   4.35804300  *
    39       H         -0.25336600  *  -4.39354400  *   3.22938200  *
    40       H          0.15431200  *  -2.79942600  *   1.37774100  *
    41       H          1.18954500  *  -2.98328400  *  -2.88010900  *
    42       H          1.96060600  *  -0.91617200  *  -3.94340300  *
    43       H          0.41326800  *   3.08424700  *  -2.23575400  *
    44       H          1.39743300  *   3.52845300  *  -3.64036200  *
    45       H          3.51656500  *   3.04127700  *  -2.38635600  *
    46       H          2.55757100  *   4.42148500  *  -1.75957900  *
    47       H          1.55749000  *   2.96124000  *  -0.01319800  *
    48       H          2.60415200  *   1.58667300  *  -0.51908400  *
    49       H          3.89941200  *   3.83415200  *   2.37540100  *
    50       H          2.29272900  *   3.11212400  *   2.06520700  *
    51       H          3.14394100  *   0.91248400  *   2.13565000  *
    52       H          4.35684000  *   1.70911100  *   3.22678200  *
    53       H          4.84263200  *   0.41264500  *   0.68906600  *
    54       H          6.02611200  *   1.40556400  *   1.63664300  *
    55       H          5.74580200  *   3.23139200  *   0.26974000  *
    56       H          4.98340800  *   2.10713900  *  -0.89609500  *
    57       H         -0.01877900  *   1.39769300  *  -0.92324800  *
    58       H         -1.98449200  *   0.19516100  *   2.02774700  *
    59       H         -0.66709000  *   1.16636200  *   1.30933300  *
    60       H         -3.71540400  *  -0.64423100  *  -0.08556800  *
    61       H         -5.42694800  *   0.45552800  *  -1.48482800  *
    62       H         -5.26749600  *   2.86763700  *  -1.98980900  *
    63       H         -1.65341800  *   3.11801100  *   0.33625400  *
    64       H         -2.82200100  *  -4.32379000  *  -0.23671900  *



          CARTESIAN COORDINATES 

    NO.       ATOM           X           Y           Z

     1         O         -4.6395     -5.9427      0.7403
     2         C         -3.4772     -5.5457      1.3978
     3         C         -3.2028     -5.9942      2.6966
     4         C         -2.0422     -5.5744      3.3510
     5         C         -1.1474     -4.7136      2.7092
     6         C         -1.3984     -4.2750      1.3996
     7         N         -0.4781     -3.3673      0.7697
     8         C         -0.3173     -3.2549     -0.6526
     9         O         -0.5219     -4.2610     -1.3859
    10         C          0.1443     -1.9867     -1.2661
    11         C          0.9159     -2.0328     -2.4384
    12         C          1.3587     -0.8578     -3.0452
    13         C          1.0360      0.3886     -2.5055
    14         O          1.5151      1.5331     -3.1669
    15         C          1.3861      2.8896     -2.7322
    16         C          2.5768      3.3144     -1.8623
    17         C          2.5423      2.6958     -0.4581
    18         N          3.6414      3.2377      0.3739
    19         C          3.3720      3.0383      1.8047
    20         C          3.9412      1.6862      2.1957
    21         C          5.0181      1.4015      1.1669
    22         C          4.9037      2.5179      0.1344
    23         C          0.2452      0.4452     -1.3434
    24         C         -0.2069     -0.7338     -0.7174
    25         O         -1.0186     -0.6938      0.4313
    26         C         -1.5123      0.4859      1.0661
    27         C         -2.5542      1.1572      0.2117
    28         C         -3.6312      0.4145     -0.2978
    29         C         -4.6020      1.0341     -1.0899
    30         C         -4.5100      2.3993     -1.3731
    31         C         -3.4460      3.1516     -0.8597
    32         C         -2.4742      2.5328     -0.0623
    33         C         -3.3532      4.5588     -1.1478
    34         N         -3.2782      5.6903     -1.3788
    35         C         -2.5804     -4.6855      0.7543
    36         H         -5.3085     -6.5685      1.1748
    37         H         -3.8917     -6.6589      3.2023
    38         H         -1.8373     -5.9139      4.3580
    39         H         -0.2534     -4.3935      3.2294
    40         H          0.1543     -2.7994      1.3777
    41         H          1.1895     -2.9833     -2.8801
    42         H          1.9606     -0.9162     -3.9434
    43         H          0.4133      3.0842     -2.2358
    44         H          1.3974      3.5285     -3.6404
    45         H          3.5166      3.0413     -2.3864
    46         H          2.5576      4.4215     -1.7596
    47         H          1.5575      2.9612     -0.0132
    48         H          2.6042      1.5867     -0.5191
    49         H          3.8994      3.8342      2.3754
    50         H          2.2927      3.1121      2.0652
    51         H          3.1439      0.9125      2.1357
    52         H          4.3568      1.7091      3.2268
    53         H          4.8426      0.4126      0.6891
    54         H          6.0261      1.4056      1.6366
    55         H          5.7458      3.2314      0.2697
    56         H          4.9834      2.1071     -0.8961
    57         H         -0.0188      1.3977     -0.9232
    58         H         -1.9845      0.1952      2.0277
    59         H         -0.6671      1.1664      1.3093
    60         H         -3.7154     -0.6442     -0.0856
    61         H         -5.4269      0.4555     -1.4848
    62         H         -5.2675      2.8676     -1.9898
    63         H         -1.6534      3.1180      0.3363
    64         H         -2.8220     -4.3238     -0.2367

 General Reference for PM7:
 "Optimization of Parameters for Semiempirical Methods VI: More Modifications to the 
 NDDO Approximations and Re-optimization of Parameters", J. J. P. Stewart, J. Mol. Mod., 1:32, 19 (2013)
 https://link.springer.com/article/10.1007/s00894-012-1667-x

           Empirical Formula: C28 H29 N3 O4  =    64 atoms



      MOLECULAR POINT GROUP   :   C1  


      RHF CALCULATION, NO. OF DOUBLY OCCUPIED LEVELS = 90


          Geometry optimization using L-BFGS
 CYCLE:     1 TIME:   0.102 TIME LEFT:  2.00D  GRAD.:   191.067 HEAT: -44.97127
 CYCLE:     2 TIME:   0.055 TIME LEFT:  2.00D  GRAD.:   187.355 HEAT: -45.33268
 CYCLE:     3 TIME:   0.070 TIME LEFT:  2.00D  GRAD.:    97.440 HEAT: -56.87293
 CYCLE:     4 TIME:   0.062 TIME LEFT:  2.00D  GRAD.:   187.554 HEAT: -45.33961
 CYCLE:     5 TIME:   0.062 TIME LEFT:  2.00D  GRAD.:    97.599 HEAT: -56.87087
 CYCLE:     6 TIME:   0.062 TIME LEFT:  2.00D  GRAD.:   101.603 HEAT: -58.86499
 CYCLE:     7 TIME:   0.055 TIME LEFT:  2.00D  GRAD.:    82.832 HEAT: -61.02380
 CYCLE:     8 TIME:   0.062 TIME LEFT:  2.00D  GRAD.:    60.413 HEAT: -65.69181
 CYCLE:     9 TIME:   0.055 TIME LEFT:  2.00D  GRAD.:    76.246 HEAT: -67.65706
 CYCLE:    10 TIME:   0.062 TIME LEFT:  2.00D  GRAD.:    29.810 HEAT: -69.11833
 CYCLE:    11 TIME:   0.055 TIME LEFT:  2.00D  GRAD.:    27.576 HEAT: -69.65623
 CYCLE:    12 TIME:   0.062 TIME LEFT:  2.00D  GRAD.:    27.619 HEAT: -70.39482
 CYCLE:    13 TIME:   0.062 TIME LEFT:  2.00D  GRAD.:    49.660 HEAT: -70.96329
 CYCLE:    14 TIME:   0.055 TIME LEFT:  2.00D  GRAD.:    19.811 HEAT: -71.59746
 CYCLE:    15 TIME:   0.055 TIME LEFT:  2.00D  GRAD.:    17.007 HEAT: -71.89647
 CYCLE:    16 TIME:   0.062 TIME LEFT:  2.00D  GRAD.:    20.664 HEAT: -72.28985
 CYCLE:    17 TIME:   0.062 TIME LEFT:  2.00D  GRAD.:    39.616 HEAT: -72.52208
 CYCLE:    18 TIME:   0.062 TIME LEFT:  2.00D  GRAD.:    17.052 HEAT: -72.87853
 CYCLE:    19 TIME:   0.055 TIME LEFT:  2.00D  GRAD.:    12.827 HEAT: -73.10020
 CYCLE:    20 TIME:   0.055 TIME LEFT:  2.00D  GRAD.:    14.856 HEAT: -73.25760
 CYCLE:    21 TIME:   0.055 TIME LEFT:  2.00D  GRAD.:    70.487 HEAT: -73.09823
 CYCLE:    22 TIME:   0.062 TIME LEFT:  2.00D  GRAD.:    12.968 HEAT: -73.47098
 CYCLE:    23 TIME:   0.055 TIME LEFT:  2.00D  GRAD.:     8.825 HEAT: -73.51363
 CYCLE:    24 TIME:   0.055 TIME LEFT:  2.00D  GRAD.:     9.625 HEAT: -73.58852
 CYCLE:    25 TIME:   0.055 TIME LEFT:  2.00D  GRAD.:    10.607 HEAT: -73.66920
 CYCLE:    26 TIME:   0.062 TIME LEFT:  2.00D  GRAD.:    24.605 HEAT: -73.74677
 CYCLE:    27 TIME:   0.055 TIME LEFT:  2.00D  GRAD.:     9.305 HEAT: -73.87043
 CYCLE:    28 TIME:   0.055 TIME LEFT:  2.00D  GRAD.:     7.464 HEAT: -73.91283
 CYCLE:    29 TIME:   0.055 TIME LEFT:  2.00D  GRAD.:     7.722 HEAT: -73.99682
 CYCLE:    30 TIME:   0.062 TIME LEFT:  2.00D  GRAD.:    19.832 HEAT: -74.02426
 CYCLE:    31 TIME:   0.055 TIME LEFT:  2.00D  GRAD.:     8.010 HEAT: -74.10008
 CYCLE:    32 TIME:   0.062 TIME LEFT:  2.00D  GRAD.:     5.916 HEAT: -74.14289
 CYCLE:    33 TIME:   0.055 TIME LEFT:  2.00D  GRAD.:     7.399 HEAT: -74.18761
 CYCLE:    34 TIME:   0.055 TIME LEFT:  2.00D  GRAD.:     7.725 HEAT: -74.24646
 CYCLE:    35 TIME:   0.055 TIME LEFT:  2.00D  GRAD.:    23.519 HEAT: -74.22407
 CYCLE:    36 TIME:   0.055 TIME LEFT:  2.00D  GRAD.:     6.790 HEAT: -74.32317
 CYCLE:    37 TIME:   0.062 TIME LEFT:  2.00D  GRAD.:     5.500 HEAT: -74.33979
 CYCLE:    38 TIME:   0.055 TIME LEFT:  2.00D  GRAD.:     7.082 HEAT: -74.36378
 CYCLE:    39 TIME:   0.062 TIME LEFT:  2.00D  GRAD.:     8.821 HEAT: -74.41411
 CYCLE:    40 TIME:   0.055 TIME LEFT:  2.00D  GRAD.:    15.566 HEAT: -74.46606
 CYCLE:    41 TIME:   0.062 TIME LEFT:  2.00D  GRAD.:     7.972 HEAT: -74.55164
 CYCLE:    42 TIME:   0.055 TIME LEFT:  2.00D  GRAD.:     7.088 HEAT: -74.59451
 CYCLE:    43 TIME:   0.055 TIME LEFT:  2.00D  GRAD.:     8.655 HEAT: -74.64438
 CYCLE:    44 TIME:   0.055 TIME LEFT:  2.00D  GRAD.:     7.724 HEAT: -74.68920
 CYCLE:    45 TIME:   0.062 TIME LEFT:  2.00D  GRAD.:     7.143 HEAT: -74.76056
 CYCLE:    46 TIME:   0.055 TIME LEFT:  2.00D  GRAD.:    12.231 HEAT: -74.80395
 CYCLE:    47 TIME:   0.055 TIME LEFT:  2.00D  GRAD.:     5.279 HEAT: -74.84953
 CYCLE:    48 TIME:   0.070 TIME LEFT:  2.00D  GRAD.:     4.878 HEAT: -74.87438
 CYCLE:    49 TIME:   0.055 TIME LEFT:  2.00D  GRAD.:     6.207 HEAT: -74.92135
 CYCLE:    50 TIME:   0.055 TIME LEFT:  2.00D  GRAD.:    17.748 HEAT: -74.91663
 CYCLE:    51 TIME:   0.062 TIME LEFT:  2.00D  GRAD.:     5.237 HEAT: -74.97694
 CYCLE:    52 TIME:   0.055 TIME LEFT:  2.00D  GRAD.:     3.856 HEAT: -74.99337
 CYCLE:    53 TIME:   0.055 TIME LEFT:  2.00D  GRAD.:     7.726 HEAT: -75.01508
 CYCLE:    54 TIME:   0.055 TIME LEFT:  2.00D  GRAD.:     6.840 HEAT: -75.03596
 CYCLE:    55 TIME:   0.055 TIME LEFT:  2.00D  GRAD.:     4.914 HEAT: -75.05689
 CYCLE:    56 TIME:   0.055 TIME LEFT:  2.00D  GRAD.:     4.898 HEAT: -75.09153
 CYCLE:    57 TIME:   0.062 TIME LEFT:  2.00D  GRAD.:    10.328 HEAT: -75.10567
 CYCLE:    58 TIME:   0.055 TIME LEFT:  2.00D  GRAD.:     4.851 HEAT: -75.12615
 CYCLE:    59 TIME:   0.055 TIME LEFT:  2.00D  GRAD.:     4.342 HEAT: -75.14126
 CYCLE:    60 TIME:   0.062 TIME LEFT:  2.00D  GRAD.:     4.660 HEAT: -75.15876
 CYCLE:    61 TIME:   0.055 TIME LEFT:  2.00D  GRAD.:     6.908 HEAT: -75.18388
 CYCLE:    62 TIME:   0.055 TIME LEFT:  2.00D  GRAD.:     7.191 HEAT: -75.19833
 CYCLE:    63 TIME:   0.062 TIME LEFT:  2.00D  GRAD.:     3.563 HEAT: -75.21736
 CYCLE:    64 TIME:   0.055 TIME LEFT:  2.00D  GRAD.:     3.615 HEAT: -75.23065
 CYCLE:    65 TIME:   0.055 TIME LEFT:  2.00D  GRAD.:     4.209 HEAT: -75.24423
 CYCLE:    66 TIME:   0.062 TIME LEFT:  2.00D  GRAD.:     5.599 HEAT: -75.26725
 CYCLE:    67 TIME:   0.055 TIME LEFT:  2.00D  GRAD.:    15.268 HEAT: -75.26674
 CYCLE:    68 TIME:   0.055 TIME LEFT:  2.00D  GRAD.:     5.366 HEAT: -75.29500
 CYCLE:    69 TIME:   0.055 TIME LEFT:  2.00D  GRAD.:     4.107 HEAT: -75.30726
 CYCLE:    70 TIME:   0.062 TIME LEFT:  2.00D  GRAD.:     5.330 HEAT: -75.32584
 CYCLE:    71 TIME:   0.055 TIME LEFT:  2.00D  GRAD.:     7.448 HEAT: -75.36399
 CYCLE:    72 TIME:   0.062 TIME LEFT:  2.00D  GRAD.:    13.633 HEAT: -75.37443
 CYCLE:    73 TIME:   0.055 TIME LEFT:  2.00D  GRAD.:     5.299 HEAT: -75.41899
 CYCLE:    74 TIME:   0.062 TIME LEFT:  2.00D  GRAD.:     4.906 HEAT: -75.44418
 CYCLE:    75 TIME:   0.055 TIME LEFT:  2.00D  GRAD.:     6.856 HEAT: -75.46516
 CYCLE:    76 TIME:   0.062 TIME LEFT:  2.00D  GRAD.:     8.405 HEAT: -75.48231
 CYCLE:    77 TIME:   0.055 TIME LEFT:  2.00D  GRAD.:     5.121 HEAT: -75.50111
 CYCLE:    78 TIME:   0.055 TIME LEFT:  2.00D  GRAD.:     4.740 HEAT: -75.52656
 CYCLE:    79 TIME:   0.055 TIME LEFT:  2.00D  GRAD.:     4.315 HEAT: -75.53938
 CYCLE:    80 TIME:   0.070 TIME LEFT:  2.00D  GRAD.:     3.868 HEAT: -75.55195
 CYCLE:    81 TIME:   0.062 TIME LEFT:  2.00D  GRAD.:    22.711 HEAT: -75.49892
 CYCLE:    82 TIME:   0.062 TIME LEFT:  2.00D  GRAD.:    30.353 HEAT: -75.41408
 CYCLE:    83 TIME:   0.062 TIME LEFT:  2.00D  GRAD.:     5.045 HEAT: -75.55932
 CYCLE:    84 TIME:   0.062 TIME LEFT:  2.00D  GRAD.:     4.894 HEAT: -75.59440
 CYCLE:    85 TIME:   0.055 TIME LEFT:  2.00D  GRAD.:    11.513 HEAT: -75.60754
 CYCLE:    86 TIME:   0.062 TIME LEFT:  2.00D  GRAD.:     3.990 HEAT: -75.62479
 CYCLE:    87 TIME:   0.055 TIME LEFT:  2.00D  GRAD.:     3.411 HEAT: -75.63033
 CYCLE:    88 TIME:   0.055 TIME LEFT:  2.00D  GRAD.:     3.913 HEAT: -75.63634
 CYCLE:    89 TIME:   0.062 TIME LEFT:  2.00D  GRAD.:     6.462 HEAT: -75.64835
 CYCLE:    90 TIME:   0.055 TIME LEFT:  2.00D  GRAD.:    10.474 HEAT: -75.65916
 CYCLE:    91 TIME:   0.062 TIME LEFT:  2.00D  GRAD.:     4.953 HEAT: -75.67325
 CYCLE:    92 TIME:   0.055 TIME LEFT:  2.00D  GRAD.:     4.102 HEAT: -75.68187
 CYCLE:    93 TIME:   0.062 TIME LEFT:  2.00D  GRAD.:     9.773 HEAT: -75.65749
 CYCLE:    94 TIME:   0.062 TIME LEFT:  2.00D  GRAD.:     6.668 HEAT: -75.69998
 CYCLE:    95 TIME:   0.086 TIME LEFT:  2.00D  GRAD.:     4.237 HEAT: -75.70546
 CYCLE:    96 TIME:   0.055 TIME LEFT:  2.00D  GRAD.:     2.445 HEAT: -75.71526
 CYCLE:    97 TIME:   0.070 TIME LEFT:  2.00D  GRAD.:    14.226 HEAT: -75.70756
 CYCLE:    98 TIME:   0.062 TIME LEFT:  2.00D  GRAD.:     3.341 HEAT: -75.73285
 CYCLE:    99 TIME:   0.055 TIME LEFT:  2.00D  GRAD.:     2.231 HEAT: -75.74357
 CYCLE:   100 TIME:   0.062 TIME LEFT:  2.00D  GRAD.:    15.810 HEAT: -75.71030
 CYCLE:   101 TIME:   0.062 TIME LEFT:  2.00D  GRAD.:     3.777 HEAT: -75.75531
 CYCLE:   102 TIME:   0.062 TIME LEFT:  2.00D  GRAD.:     3.193 HEAT: -75.77006
 CYCLE:   103 TIME:   0.062 TIME LEFT:  2.00D  GRAD.:     4.441 HEAT: -75.77709
 CYCLE:   104 TIME:   0.055 TIME LEFT:  2.00D  GRAD.:     9.716 HEAT: -75.78268
 CYCLE:   105 TIME:   0.055 TIME LEFT:  2.00D  GRAD.:     4.835 HEAT: -75.79843
 CYCLE:   106 TIME:   0.062 TIME LEFT:  2.00D  GRAD.:     3.840 HEAT: -75.81225
 CYCLE:   107 TIME:   0.055 TIME LEFT:  2.00D  GRAD.:     3.433 HEAT: -75.81893
 CYCLE:   108 TIME:   0.070 TIME LEFT:  2.00D  GRAD.:     3.567 HEAT: -75.83015
 CYCLE:   109 TIME:   0.055 TIME LEFT:  2.00D  GRAD.:     5.149 HEAT: -75.83871
 CYCLE:   110 TIME:   0.055 TIME LEFT:  2.00D  GRAD.:     3.451 HEAT: -75.84821
 CYCLE:   111 TIME:   0.055 TIME LEFT:  2.00D  GRAD.:     3.432 HEAT: -75.85897
 CYCLE:   112 TIME:   0.055 TIME LEFT:  2.00D  GRAD.:     4.793 HEAT: -75.86749
 CYCLE:   113 TIME:   0.062 TIME LEFT:  2.00D  GRAD.:     6.735 HEAT: -75.87733
 CYCLE:   114 TIME:   0.055 TIME LEFT:  2.00D  GRAD.:     4.474 HEAT: -75.88865
 CYCLE:   115 TIME:   0.055 TIME LEFT:  2.00D  GRAD.:     3.292 HEAT: -75.90488
 CYCLE:   116 TIME:   0.062 TIME LEFT:  2.00D  GRAD.:     3.987 HEAT: -75.91369
 CYCLE:   117 TIME:   0.055 TIME LEFT:  2.00D  GRAD.:     5.552 HEAT: -75.92304
 CYCLE:   118 TIME:   0.055 TIME LEFT:  2.00D  GRAD.:     3.499 HEAT: -75.93359
 CYCLE:   119 TIME:   0.055 TIME LEFT:  2.00D  GRAD.:     2.852 HEAT: -75.93848
 CYCLE:   120 TIME:   0.055 TIME LEFT:  2.00D  GRAD.:     2.728 HEAT: -75.94326
 CYCLE:   121 TIME:   0.055 TIME LEFT:  2.00D  GRAD.:     4.527 HEAT: -75.95470
 CYCLE:   122 TIME:   0.062 TIME LEFT:  2.00D  GRAD.:     3.860 HEAT: -75.96486
 CYCLE:   123 TIME:   0.055 TIME LEFT:  2.00D  GRAD.:     2.773 HEAT: -75.97223
 CYCLE:   124 TIME:   0.078 TIME LEFT:  2.00D  GRAD.:     2.990 HEAT: -75.98000
 CYCLE:   125 TIME:   0.062 TIME LEFT:  2.00D  GRAD.:     6.247 HEAT: -75.99305
 CYCLE:   126 TIME:   0.062 TIME LEFT:  2.00D  GRAD.:     5.112 HEAT: -76.00825
 CYCLE:   127 TIME:   0.055 TIME LEFT:  2.00D  GRAD.:     3.802 HEAT: -76.01830
 CYCLE:   128 TIME:   0.055 TIME LEFT:  2.00D  GRAD.:     3.284 HEAT: -76.02681
 CYCLE:   129 TIME:   0.055 TIME LEFT:  2.00D  GRAD.:     8.544 HEAT: -76.03624
 CYCLE:   130 TIME:   0.055 TIME LEFT:  2.00D  GRAD.:     3.586 HEAT: -76.04882
 CYCLE:   131 TIME:   0.062 TIME LEFT:  2.00D  GRAD.:     2.974 HEAT: -76.05863
 CYCLE:   132 TIME:   0.062 TIME LEFT:  2.00D  GRAD.:     3.482 HEAT: -76.06374
 CYCLE:   133 TIME:   0.055 TIME LEFT:  2.00D  GRAD.:     4.460 HEAT: -76.07853
 CYCLE:   134 TIME:   0.062 TIME LEFT:  2.00D  GRAD.:     5.875 HEAT: -76.08832
 CYCLE:   135 TIME:   0.055 TIME LEFT:  2.00D  GRAD.:     2.997 HEAT: -76.09880
 CYCLE:   136 TIME:   0.055 TIME LEFT:  2.00D  GRAD.:     3.171 HEAT: -76.10506
 CYCLE:   137 TIME:   0.055 TIME LEFT:  2.00D  GRAD.:     3.926 HEAT: -76.11552
 CYCLE:   138 TIME:   0.062 TIME LEFT:  2.00D  GRAD.:    13.224 HEAT: -76.10908
 CYCLE:   139 TIME:   0.055 TIME LEFT:  2.00D  GRAD.:     3.623 HEAT: -76.12652
 CYCLE:   140 TIME:   0.055 TIME LEFT:  2.00D  GRAD.:     2.177 HEAT: -76.13061
 CYCLE:   141 TIME:   0.055 TIME LEFT:  2.00D  GRAD.:     2.261 HEAT: -76.13523
 CYCLE:   142 TIME:   0.062 TIME LEFT:  2.00D  GRAD.:     3.160 HEAT: -76.14621
 CYCLE:   143 TIME:   0.086 TIME LEFT:  2.00D  GRAD.:    12.017 HEAT: -76.13616
 CYCLE:   144 TIME:   0.055 TIME LEFT:  2.00D  GRAD.:     3.170 HEAT: -76.15837
 CYCLE:   145 TIME:   0.055 TIME LEFT:  2.00D  GRAD.:     2.004 HEAT: -76.16368
 CYCLE:   146 TIME:   0.062 TIME LEFT:  2.00D  GRAD.:     3.175 HEAT: -76.17237
 CYCLE:   147 TIME:   0.055 TIME LEFT:  2.00D  GRAD.:    13.958 HEAT: -76.16187
 CYCLE:   148 TIME:   0.055 TIME LEFT:  2.00D  GRAD.:     3.589 HEAT: -76.18147
 CYCLE:   149 TIME:   0.062 TIME LEFT:  2.00D  GRAD.:     2.349 HEAT: -76.18496
 CYCLE:   150 TIME:   0.062 TIME LEFT:  2.00D  GRAD.:     3.768 HEAT: -76.19103
 CYCLE:   151 TIME:   0.055 TIME LEFT:  2.00D  GRAD.:     2.954 HEAT: -76.19725
 CYCLE:   152 TIME:   0.055 TIME LEFT:  2.00D  GRAD.:     3.333 HEAT: -76.20378
 CYCLE:   153 TIME:   0.055 TIME LEFT:  2.00D  GRAD.:     6.630 HEAT: -76.20644
 CYCLE:   154 TIME:   0.055 TIME LEFT:  2.00D  GRAD.:     3.152 HEAT: -76.21208
 CYCLE:   155 TIME:   0.062 TIME LEFT:  2.00D  GRAD.:     2.230 HEAT: -76.21473
 CYCLE:   156 TIME:   0.062 TIME LEFT:  2.00D  GRAD.:     2.272 HEAT: -76.21945
 CYCLE:   157 TIME:   0.062 TIME LEFT:  2.00D  GRAD.:     2.858 HEAT: -76.23028
 CYCLE:   158 TIME:   0.055 TIME LEFT:  2.00D  GRAD.:     5.878 HEAT: -76.23531
 CYCLE:   159 TIME:   0.062 TIME LEFT:  2.00D  GRAD.:     3.015 HEAT: -76.24123
 CYCLE:   160 TIME:   0.062 TIME LEFT:  2.00D  GRAD.:     2.431 HEAT: -76.24423
 CYCLE:   161 TIME:   0.055 TIME LEFT:  2.00D  GRAD.:     3.042 HEAT: -76.25021
 CYCLE:   162 TIME:   0.055 TIME LEFT:  2.00D  GRAD.:     3.793 HEAT: -76.25672
 CYCLE:   163 TIME:   0.055 TIME LEFT:  2.00D  GRAD.:     6.359 HEAT: -76.25682
 CYCLE:   164 TIME:   0.055 TIME LEFT:  2.00D  GRAD.:     2.439 HEAT: -76.26375
 CYCLE:   165 TIME:   0.062 TIME LEFT:  2.00D  GRAD.:     2.307 HEAT: -76.26646
 CYCLE:   166 TIME:   0.062 TIME LEFT:  2.00D  GRAD.:     2.569 HEAT: -76.27128
 CYCLE:   167 TIME:   0.094 TIME LEFT:  2.00D  GRAD.:     3.907 HEAT: -76.27930
 CYCLE:   168 TIME:   0.055 TIME LEFT:  2.00D  GRAD.:     7.653 HEAT: -76.28081
 CYCLE:   169 TIME:   0.055 TIME LEFT:  2.00D  GRAD.:     2.976 HEAT: -76.28715
 CYCLE:   170 TIME:   0.055 TIME LEFT:  2.00D  GRAD.:     2.525 HEAT: -76.29129
 CYCLE:   171 TIME:   0.055 TIME LEFT:  2.00D  GRAD.:     3.379 HEAT: -76.29604
 CYCLE:   172 TIME:   0.062 TIME LEFT:  2.00D  GRAD.:     3.780 HEAT: -76.30263
 CYCLE:   173 TIME:   0.055 TIME LEFT:  2.00D  GRAD.:     8.986 HEAT: -76.30254
 CYCLE:   174 TIME:   0.055 TIME LEFT:  2.00D  GRAD.:     4.731 HEAT: -76.31454
 CYCLE:   175 TIME:   0.055 TIME LEFT:  2.00D  GRAD.:     2.008 HEAT: -76.32031
 CYCLE:   176 TIME:   0.062 TIME LEFT:  2.00D  GRAD.:     2.075 HEAT: -76.32136
 CYCLE:   177 TIME:   0.062 TIME LEFT:  2.00D  GRAD.:     1.951 HEAT: -76.32636
 CYCLE:   178 TIME:   0.062 TIME LEFT:  2.00D  GRAD.:     2.387 HEAT: -76.33229
 CYCLE:   179 TIME:   0.062 TIME LEFT:  2.00D  GRAD.:    15.797 HEAT: -76.29041
 CYCLE:   180 TIME:   0.062 TIME LEFT:  2.00D  GRAD.:     4.361 HEAT: -76.34396
 CYCLE:   181 TIME:   0.055 TIME LEFT:  2.00D  GRAD.:     2.014 HEAT: -76.34959
 CYCLE:   182 TIME:   0.062 TIME LEFT:  2.00D  GRAD.:     3.968 HEAT: -76.35330
 CYCLE:   183 TIME:   0.062 TIME LEFT:  2.00D  GRAD.:     2.415 HEAT: -76.35965
 CYCLE:   184 TIME:   0.062 TIME LEFT:  2.00D  GRAD.:     1.857 HEAT: -76.36407
 CYCLE:   185 TIME:   0.062 TIME LEFT:  2.00D  GRAD.:     3.061 HEAT: -76.36833
 CYCLE:   186 TIME:   0.062 TIME LEFT:  2.00D  GRAD.:     3.458 HEAT: -76.37024
 CYCLE:   187 TIME:   0.062 TIME LEFT:  2.00D  GRAD.:     4.605 HEAT: -76.37216
 CYCLE:   188 TIME:   0.055 TIME LEFT:  2.00D  GRAD.:     3.391 HEAT: -76.37770
 CYCLE:   189 TIME:   0.070 TIME LEFT:  2.00D  GRAD.:     2.480 HEAT: -76.37421
 CYCLE:   190 TIME:   0.062 TIME LEFT:  2.00D  GRAD.:     3.630 HEAT: -76.38561
 CYCLE:   191 TIME:   0.062 TIME LEFT:  2.00D  GRAD.:     3.841 HEAT: -76.38957
 CYCLE:   192 TIME:   0.055 TIME LEFT:  2.00D  GRAD.:     2.203 HEAT: -76.39347
 CYCLE:   193 TIME:   0.062 TIME LEFT:  2.00D  GRAD.:     2.017 HEAT: -76.39716
 CYCLE:   194 TIME:   0.055 TIME LEFT:  2.00D  GRAD.:     2.712 HEAT: -76.40078
 CYCLE:   195 TIME:   0.055 TIME LEFT:  2.00D  GRAD.:     2.250 HEAT: -76.40674
 CYCLE:   196 TIME:   0.062 TIME LEFT:  2.00D  GRAD.:     3.395 HEAT: -76.41253
 CYCLE:   197 TIME:   0.055 TIME LEFT:  2.00D  GRAD.:     3.423 HEAT: -76.41603
 CYCLE:   198 TIME:   0.062 TIME LEFT:  2.00D  GRAD.:     3.142 HEAT: -76.42086
 CYCLE:   199 TIME:   0.055 TIME LEFT:  2.00D  GRAD.:     3.740 HEAT: -76.42719
 CYCLE:   200 TIME:   0.062 TIME LEFT:  2.00D  GRAD.:     5.252 HEAT: -76.43101
 CYCLE:   201 TIME:   0.055 TIME LEFT:  2.00D  GRAD.:     2.636 HEAT: -76.43525
 CYCLE:   202 TIME:   0.062 TIME LEFT:  2.00D  GRAD.:     2.482 HEAT: -76.43767
 CYCLE:   203 TIME:   0.055 TIME LEFT:  2.00D  GRAD.:     2.379 HEAT: -76.44079
 CYCLE:   204 TIME:   0.062 TIME LEFT:  2.00D  GRAD.:     3.427 HEAT: -76.44727
 CYCLE:   205 TIME:   0.070 TIME LEFT:  2.00D  GRAD.:    25.950 HEAT: -76.33111
 CYCLE:   206 TIME:   0.055 TIME LEFT:  2.00D  GRAD.:     3.103 HEAT: -76.45326
 CYCLE:   207 TIME:   0.062 TIME LEFT:  2.00D  GRAD.:     3.326 HEAT: -76.45272
 CYCLE:   208 TIME:   0.062 TIME LEFT:  2.00D  GRAD.:     3.414 HEAT: -76.45941
 CYCLE:   209 TIME:   0.055 TIME LEFT:  2.00D  GRAD.:     2.029 HEAT: -76.46251
 CYCLE:   210 TIME:   0.055 TIME LEFT:  2.00D  GRAD.:     1.441 HEAT: -76.46543
 CYCLE:   211 TIME:   0.062 TIME LEFT:  2.00D  GRAD.:     5.956 HEAT: -76.47070
 CYCLE:   212 TIME:   0.055 TIME LEFT:  2.00D  GRAD.:     2.974 HEAT: -76.47588
 CYCLE:   213 TIME:   0.055 TIME LEFT:  2.00D  GRAD.:     1.653 HEAT: -76.47973
 CYCLE:   214 TIME:   0.062 TIME LEFT:  2.00D  GRAD.:     3.290 HEAT: -76.48436
 CYCLE:   215 TIME:   0.062 TIME LEFT:  2.00D  GRAD.:     4.086 HEAT: -76.48838
 CYCLE:   216 TIME:   0.062 TIME LEFT:  2.00D  GRAD.:     3.343 HEAT: -76.49307
 CYCLE:   217 TIME:   0.062 TIME LEFT:  2.00D  GRAD.:     2.864 HEAT: -76.50052
 CYCLE:   218 TIME:   0.062 TIME LEFT:  2.00D  GRAD.:     6.954 HEAT: -76.50576
 CYCLE:   219 TIME:   0.055 TIME LEFT:  2.00D  GRAD.:     2.499 HEAT: -76.51378
 CYCLE:   220 TIME:   0.055 TIME LEFT:  2.00D  GRAD.:     2.122 HEAT: -76.51631
 CYCLE:   221 TIME:   0.062 TIME LEFT:  2.00D  GRAD.:     2.778 HEAT: -76.52392
 CYCLE:   222 TIME:   0.062 TIME LEFT:  2.00D  GRAD.:     3.623 HEAT: -76.53028
 CYCLE:   223 TIME:   0.055 TIME LEFT:  2.00D  GRAD.:     7.705 HEAT: -76.52893
 CYCLE:   224 TIME:   0.062 TIME LEFT:  2.00D  GRAD.:     2.627 HEAT: -76.54232
 CYCLE:   225 TIME:   0.062 TIME LEFT:  2.00D  GRAD.:     2.040 HEAT: -76.54629
 CYCLE:   226 TIME:   0.062 TIME LEFT:  2.00D  GRAD.:     3.730 HEAT: -76.55076
 CYCLE:   227 TIME:   0.055 TIME LEFT:  2.00D  GRAD.:     2.864 HEAT: -76.55713
 CYCLE:   228 TIME:   0.062 TIME LEFT:  2.00D  GRAD.:     3.255 HEAT: -76.56318
 CYCLE:   229 TIME:   0.062 TIME LEFT:  2.00D  GRAD.:     5.407 HEAT: -76.56657
 CYCLE:   230 TIME:   0.055 TIME LEFT:  2.00D  GRAD.:     2.473 HEAT: -76.57100
 CYCLE:   231 TIME:   0.055 TIME LEFT:  2.00D  GRAD.:     2.896 HEAT: -76.57438
 CYCLE:   232 TIME:   0.055 TIME LEFT:  2.00D  GRAD.:     2.904 HEAT: -76.57759
 CYCLE:   233 TIME:   0.062 TIME LEFT:  2.00D  GRAD.:     4.078 HEAT: -76.58527
 CYCLE:   234 TIME:   0.062 TIME LEFT:  2.00D  GRAD.:     8.613 HEAT: -76.58087
 CYCLE:   235 TIME:   0.055 TIME LEFT:  2.00D  GRAD.:     2.192 HEAT: -76.59479
 CYCLE:   236 TIME:   0.055 TIME LEFT:  2.00D  GRAD.:     1.604 HEAT: -76.59707
 CYCLE:   237 TIME:   0.055 TIME LEFT:  2.00D  GRAD.:     1.844 HEAT: -76.60264
 CYCLE:   238 TIME:   0.062 TIME LEFT:  2.00D  GRAD.:     3.701 HEAT: -76.60791
 CYCLE:   239 TIME:   0.062 TIME LEFT:  2.00D  GRAD.:     4.003 HEAT: -76.61030
 CYCLE:   240 TIME:   0.055 TIME LEFT:  2.00D  GRAD.:     1.719 HEAT: -76.61326
 CYCLE:   241 TIME:   0.055 TIME LEFT:  2.00D  GRAD.:     1.377 HEAT: -76.61473
 CYCLE:   242 TIME:   0.055 TIME LEFT:  2.00D  GRAD.:     1.455 HEAT: -76.61645
 CYCLE:   243 TIME:   0.062 TIME LEFT:  2.00D  GRAD.:     3.588 HEAT: -76.61813
 CYCLE:   244 TIME:   0.062 TIME LEFT:  2.00D  GRAD.:    10.057 HEAT: -76.61285
 CYCLE:   245 TIME:   0.055 TIME LEFT:  2.00D  GRAD.:     1.556 HEAT: -76.62135
 CYCLE:   246 TIME:   0.055 TIME LEFT:  2.00D  GRAD.:     1.175 HEAT: -76.62199
 CYCLE:   247 TIME:   0.055 TIME LEFT:  2.00D  GRAD.:     1.617 HEAT: -76.62401
 CYCLE:   248 TIME:   0.055 TIME LEFT:  2.00D  GRAD.:     1.668 HEAT: -76.62574
 CYCLE:   249 TIME:   0.070 TIME LEFT:  2.00D  GRAD.:     4.695 HEAT: -76.62603
 CYCLE:   250 TIME:   0.055 TIME LEFT:  2.00D  GRAD.:     1.590 HEAT: -76.63024
 CYCLE:   251 TIME:   0.055 TIME LEFT:  2.00D  GRAD.:     1.118 HEAT: -76.63125
 CYCLE:   252 TIME:   0.062 TIME LEFT:  2.00D  GRAD.:     1.390 HEAT: -76.63313
 CYCLE:   253 TIME:   0.062 TIME LEFT:  2.00D  GRAD.:     3.439 HEAT: -76.63424
 CYCLE:   254 TIME:   0.055 TIME LEFT:  2.00D  GRAD.:     1.731 HEAT: -76.63635
 CYCLE:   255 TIME:   0.055 TIME LEFT:  2.00D  GRAD.:     1.232 HEAT: -76.63820
 CYCLE:   256 TIME:   0.062 TIME LEFT:  2.00D  GRAD.:     1.486 HEAT: -76.63932
 CYCLE:   257 TIME:   0.055 TIME LEFT:  2.00D  GRAD.:     1.951 HEAT: -76.64256
 CYCLE:   258 TIME:   0.062 TIME LEFT:  2.00D  GRAD.:     6.183 HEAT: -76.64244
 CYCLE:   259 TIME:   0.055 TIME LEFT:  2.00D  GRAD.:     2.466 HEAT: -76.64755
 CYCLE:   260 TIME:   0.055 TIME LEFT:  2.00D  GRAD.:     1.592 HEAT: -76.64928
 CYCLE:   261 TIME:   0.055 TIME LEFT:  2.00D  GRAD.:     1.816 HEAT: -76.65213
 CYCLE:   262 TIME:   0.062 TIME LEFT:  2.00D  GRAD.:     4.182 HEAT: -76.65462
 CYCLE:   263 TIME:   0.055 TIME LEFT:  2.00D  GRAD.:     3.115 HEAT: -76.65763
 CYCLE:   264 TIME:   0.062 TIME LEFT:  2.00D  GRAD.:     1.924 HEAT: -76.66175
 CYCLE:   265 TIME:   0.055 TIME LEFT:  2.00D  GRAD.:     2.484 HEAT: -76.66571
 CYCLE:   266 TIME:   0.062 TIME LEFT:  2.00D  GRAD.:     4.031 HEAT: -76.66843
 CYCLE:   267 TIME:   0.055 TIME LEFT:  2.00D  GRAD.:     2.536 HEAT: -76.67407
 CYCLE:   268 TIME:   0.062 TIME LEFT:  2.00D  GRAD.:     2.397 HEAT: -76.67868
 CYCLE:   269 TIME:   0.055 TIME LEFT:  2.00D  GRAD.:     1.904 HEAT: -76.68187
 CYCLE:   270 TIME:   0.062 TIME LEFT:  2.00D  GRAD.:     1.999 HEAT: -76.68595
 CYCLE:   271 TIME:   0.070 TIME LEFT:  2.00D  GRAD.:     5.165 HEAT: -76.69043
 CYCLE:   272 TIME:   0.055 TIME LEFT:  2.00D  GRAD.:    11.178 HEAT: -76.67764
 CYCLE:   273 TIME:   0.055 TIME LEFT:  2.00D  GRAD.:     2.017 HEAT: -76.69984
 CYCLE:   274 TIME:   0.062 TIME LEFT:  2.00D  GRAD.:     1.641 HEAT: -76.70151
 CYCLE:   275 TIME:   0.062 TIME LEFT:  2.00D  GRAD.:     3.050 HEAT: -76.70097
 CYCLE:   276 TIME:   0.062 TIME LEFT:  2.00D  GRAD.:     2.595 HEAT: -76.70788
 CYCLE:   277 TIME:   0.062 TIME LEFT:  2.00D  GRAD.:    11.830 HEAT: -76.69814
 CYCLE:   278 TIME:   0.055 TIME LEFT:  2.00D  GRAD.:     1.915 HEAT: -76.71192
 CYCLE:   279 TIME:   0.062 TIME LEFT:  2.00D  GRAD.:     1.754 HEAT: -76.71391
 CYCLE:   280 TIME:   0.062 TIME LEFT:  2.00D  GRAD.:     2.676 HEAT: -76.71983
 CYCLE:   281 TIME:   0.055 TIME LEFT:  2.00D  GRAD.:     3.098 HEAT: -76.72490
 CYCLE:   282 TIME:   0.062 TIME LEFT:  2.00D  GRAD.:     3.050 HEAT: -76.72682
 CYCLE:   283 TIME:   0.055 TIME LEFT:  2.00D  GRAD.:     1.886 HEAT: -76.73014
 CYCLE:   284 TIME:   0.062 TIME LEFT:  2.00D  GRAD.:     2.580 HEAT: -76.73235
 CYCLE:   285 TIME:   0.062 TIME LEFT:  2.00D  GRAD.:     2.024 HEAT: -76.73717
 CYCLE:   286 TIME:   0.062 TIME LEFT:  2.00D  GRAD.:     2.233 HEAT: -76.74167
 CYCLE:   287 TIME:   0.062 TIME LEFT:  2.00D  GRAD.:     8.275 HEAT: -76.74004
 CYCLE:   288 TIME:   0.055 TIME LEFT:  2.00D  GRAD.:     2.301 HEAT: -76.74914
 CYCLE:   289 TIME:   0.062 TIME LEFT:  2.00D  GRAD.:     1.531 HEAT: -76.75149
 CYCLE:   290 TIME:   0.055 TIME LEFT:  2.00D  GRAD.:     2.063 HEAT: -76.75494
 CYCLE:   291 TIME:   0.062 TIME LEFT:  2.00D  GRAD.:     2.605 HEAT: -76.76049
 CYCLE:   292 TIME:   0.062 TIME LEFT:  2.00D  GRAD.:     9.286 HEAT: -76.75657
 CYCLE:   293 TIME:   0.055 TIME LEFT:  2.00D  GRAD.:     2.553 HEAT: -76.77078
 CYCLE:   294 TIME:   0.070 TIME LEFT:  2.00D  GRAD.:     1.864 HEAT: -76.77277
 CYCLE:   295 TIME:   0.055 TIME LEFT:  2.00D  GRAD.:     1.792 HEAT: -76.77739
 CYCLE:   296 TIME:   0.062 TIME LEFT:  2.00D  GRAD.:     3.228 HEAT: -76.78223
 CYCLE:   297 TIME:   0.055 TIME LEFT:  2.00D  GRAD.:     9.989 HEAT: -76.77692
 CYCLE:   298 TIME:   0.055 TIME LEFT:  2.00D  GRAD.:     2.116 HEAT: -76.78824
 CYCLE:   299 TIME:   0.062 TIME LEFT:  2.00D  GRAD.:     1.542 HEAT: -76.79002
 CYCLE:   300 TIME:   0.062 TIME LEFT:  2.00D  GRAD.:     1.820 HEAT: -76.79389
 CYCLE:   301 TIME:   0.062 TIME LEFT:  2.00D  GRAD.:     3.223 HEAT: -76.79786
 CYCLE:   302 TIME:   0.055 TIME LEFT:  2.00D  GRAD.:     2.031 HEAT: -76.80244
 CYCLE:   303 TIME:   0.055 TIME LEFT:  2.00D  GRAD.:     2.297 HEAT: -76.80756
 CYCLE:   304 TIME:   0.055 TIME LEFT:  2.00D  GRAD.:     3.541 HEAT: -76.81174
 CYCLE:   305 TIME:   0.055 TIME LEFT:  2.00D  GRAD.:     2.033 HEAT: -76.81556
 CYCLE:   306 TIME:   0.062 TIME LEFT:  2.00D  GRAD.:     2.650 HEAT: -76.81741
 CYCLE:   307 TIME:   0.062 TIME LEFT:  2.00D  GRAD.:     3.158 HEAT: -76.82260
 CYCLE:   308 TIME:   0.055 TIME LEFT:  2.00D  GRAD.:     2.534 HEAT: -76.82749
 CYCLE:   309 TIME:   0.062 TIME LEFT:  2.00D  GRAD.:     3.133 HEAT: -76.83369
 CYCLE:   310 TIME:   0.055 TIME LEFT:  2.00D  GRAD.:     2.963 HEAT: -76.83870
 CYCLE:   311 TIME:   0.070 TIME LEFT:  2.00D  GRAD.:     3.233 HEAT: -76.84265
 CYCLE:   312 TIME:   0.055 TIME LEFT:  2.00D  GRAD.:     6.692 HEAT: -76.84328
 CYCLE:   313 TIME:   0.062 TIME LEFT:  2.00D  GRAD.:     2.135 HEAT: -76.85195
 CYCLE:   314 TIME:   0.062 TIME LEFT:  2.00D  GRAD.:     1.832 HEAT: -76.85429
 CYCLE:   315 TIME:   0.062 TIME LEFT:  2.00D  GRAD.:     2.779 HEAT: -76.85917
 CYCLE:   316 TIME:   0.055 TIME LEFT:  2.00D  GRAD.:     2.385 HEAT: -76.86266
 CYCLE:   317 TIME:   0.055 TIME LEFT:  2.00D  GRAD.:     1.876 HEAT: -76.86480
 CYCLE:   318 TIME:   0.070 TIME LEFT:  2.00D  GRAD.:     1.886 HEAT: -76.86779
 CYCLE:   319 TIME:   0.055 TIME LEFT:  2.00D  GRAD.:     7.633 HEAT: -76.86617
 CYCLE:   320 TIME:   0.055 TIME LEFT:  2.00D  GRAD.:     2.356 HEAT: -76.87187
 CYCLE:   321 TIME:   0.055 TIME LEFT:  2.00D  GRAD.:     1.260 HEAT: -76.87318
 CYCLE:   322 TIME:   0.062 TIME LEFT:  2.00D  GRAD.:     1.609 HEAT: -76.87433
 CYCLE:   323 TIME:   0.062 TIME LEFT:  2.00D  GRAD.:     2.092 HEAT: -76.87661
 CYCLE:   324 TIME:   0.055 TIME LEFT:  2.00D  GRAD.:     3.354 HEAT: -76.87942
 CYCLE:   325 TIME:   0.055 TIME LEFT:  2.00D  GRAD.:     1.919 HEAT: -76.88143
 CYCLE:   326 TIME:   0.055 TIME LEFT:  2.00D  GRAD.:     1.699 HEAT: -76.88323
 CYCLE:   327 TIME:   0.062 TIME LEFT:  2.00D  GRAD.:     1.882 HEAT: -76.88566
 CYCLE:   328 TIME:   0.070 TIME LEFT:  2.00D  GRAD.:     3.326 HEAT: -76.88891
 CYCLE:   329 TIME:   0.055 TIME LEFT:  2.00D  GRAD.:     1.945 HEAT: -76.89217
 CYCLE:   330 TIME:   0.055 TIME LEFT:  2.00D  GRAD.:     1.373 HEAT: -76.89365
 CYCLE:   331 TIME:   0.062 TIME LEFT:  2.00D  GRAD.:     1.527 HEAT: -76.89567
 CYCLE:   332 TIME:   0.055 TIME LEFT:  2.00D  GRAD.:     3.115 HEAT: -76.89805
 CYCLE:   333 TIME:   0.055 TIME LEFT:  2.00D  GRAD.:     1.777 HEAT: -76.90088
 CYCLE:   334 TIME:   0.055 TIME LEFT:  2.00D  GRAD.:     1.715 HEAT: -76.90299
 CYCLE:   335 TIME:   0.062 TIME LEFT:  2.00D  GRAD.:     3.168 HEAT: -76.90497
 CYCLE:   336 TIME:   0.055 TIME LEFT:  2.00D  GRAD.:     1.804 HEAT: -76.90723
 CYCLE:   337 TIME:   0.070 TIME LEFT:  2.00D  GRAD.:     3.153 HEAT: -76.90988
 CYCLE:   338 TIME:   0.055 TIME LEFT:  2.00D  GRAD.:     2.170 HEAT: -76.91241
 CYCLE:   339 TIME:   0.055 TIME LEFT:  2.00D  GRAD.:     1.717 HEAT: -76.91554
 CYCLE:   340 TIME:   0.062 TIME LEFT:  2.00D  GRAD.:     2.199 HEAT: -76.91882
 CYCLE:   341 TIME:   0.055 TIME LEFT:  2.00D  GRAD.:     2.505 HEAT: -76.92376
 CYCLE:   342 TIME:   0.062 TIME LEFT:  2.00D  GRAD.:     5.879 HEAT: -76.92592
 CYCLE:   343 TIME:   0.055 TIME LEFT:  2.00D  GRAD.:     4.322 HEAT: -76.93068
 CYCLE:   344 TIME:   0.055 TIME LEFT:  2.00D  GRAD.:     2.471 HEAT: -76.93608
 CYCLE:   345 TIME:   0.062 TIME LEFT:  2.00D  GRAD.:     2.526 HEAT: -76.93985
 CYCLE:   346 TIME:   0.062 TIME LEFT:  2.00D  GRAD.:     2.012 HEAT: -76.94374
 CYCLE:   347 TIME:   0.062 TIME LEFT:  2.00D  GRAD.:     2.119 HEAT: -76.94822
 CYCLE:   348 TIME:   0.070 TIME LEFT:  2.00D  GRAD.:    20.365 HEAT: -76.87892
 CYCLE:   349 TIME:   0.055 TIME LEFT:  2.00D  GRAD.:     2.783 HEAT: -76.95751
 CYCLE:   350 TIME:   0.055 TIME LEFT:  2.00D  GRAD.:     1.924 HEAT: -76.95859
 CYCLE:   351 TIME:   0.062 TIME LEFT:  2.00D  GRAD.:     1.827 HEAT: -76.96305
 CYCLE:   352 TIME:   0.062 TIME LEFT:  2.00D  GRAD.:     2.344 HEAT: -76.96699
 CYCLE:   353 TIME:   0.078 TIME LEFT:  2.00D  GRAD.:    17.455 HEAT: -76.90378
 CYCLE:   354 TIME:   0.055 TIME LEFT:  2.00D  GRAD.:     2.124 HEAT: -76.97262
 CYCLE:   355 TIME:   0.086 TIME LEFT:  2.00D  GRAD.:     3.329 HEAT: -76.97460
 CYCLE:   356 TIME:   0.062 TIME LEFT:  2.00D  GRAD.:     2.454 HEAT: -76.97793
 CYCLE:   357 TIME:   0.062 TIME LEFT:  2.00D  GRAD.:     2.445 HEAT: -76.98644
 CYCLE:   358 TIME:   0.070 TIME LEFT:  2.00D  GRAD.:    10.276 HEAT: -76.98407
 CYCLE:   359 TIME:   0.055 TIME LEFT:  2.00D  GRAD.:     2.421 HEAT: -76.99205
 CYCLE:   360 TIME:   0.055 TIME LEFT:  2.00D  GRAD.:     1.852 HEAT: -76.99383
 CYCLE:   361 TIME:   0.062 TIME LEFT:  2.00D  GRAD.:     6.094 HEAT: -77.00197
 CYCLE:   362 TIME:   0.055 TIME LEFT:  2.00D  GRAD.:     3.779 HEAT: -77.00634
 CYCLE:   363 TIME:   0.062 TIME LEFT:  2.00D  GRAD.:     4.612 HEAT: -77.01212
 CYCLE:   364 TIME:   0.055 TIME LEFT:  2.00D  GRAD.:     4.320 HEAT: -77.01516
 CYCLE:   365 TIME:   0.062 TIME LEFT:  2.00D  GRAD.:     2.986 HEAT: -77.02720
 CYCLE:   366 TIME:   0.062 TIME LEFT:  2.00D  GRAD.:     3.693 HEAT: -77.03250
 CYCLE:   367 TIME:   0.055 TIME LEFT:  2.00D  GRAD.:     3.134 HEAT: -77.04108
 CYCLE:   368 TIME:   0.055 TIME LEFT:  2.00D  GRAD.:     3.600 HEAT: -77.04901
 CYCLE:   369 TIME:   0.055 TIME LEFT:  2.00D  GRAD.:     3.082 HEAT: -77.05431
 CYCLE:   370 TIME:   0.070 TIME LEFT:  2.00D  GRAD.:     6.291 HEAT: -77.05696
 CYCLE:   371 TIME:   0.055 TIME LEFT:  2.00D  GRAD.:     4.086 HEAT: -77.06438
 CYCLE:   372 TIME:   0.055 TIME LEFT:  2.00D  GRAD.:     2.437 HEAT: -77.06993
 CYCLE:   373 TIME:   0.055 TIME LEFT:  2.00D  GRAD.:     2.415 HEAT: -77.07387
 CYCLE:   374 TIME:   0.062 TIME LEFT:  2.00D  GRAD.:     2.971 HEAT: -77.08088
 CYCLE:   375 TIME:   0.055 TIME LEFT:  2.00D  GRAD.:    13.260 HEAT: -77.07059
 CYCLE:   376 TIME:   0.055 TIME LEFT:  2.00D  GRAD.:     3.320 HEAT: -77.08709
 CYCLE:   377 TIME:   0.055 TIME LEFT:  2.00D  GRAD.:     1.609 HEAT: -77.08953
 CYCLE:   378 TIME:   0.070 TIME LEFT:  2.00D  GRAD.:     1.841 HEAT: -77.09228
 CYCLE:   379 TIME:   0.062 TIME LEFT:  2.00D  GRAD.:     4.856 HEAT: -77.09428
 CYCLE:   380 TIME:   0.055 TIME LEFT:  2.00D  GRAD.:     4.869 HEAT: -77.09853
 CYCLE:   381 TIME:   0.055 TIME LEFT:  2.00D  GRAD.:     2.961 HEAT: -77.10335
 CYCLE:   382 TIME:   0.062 TIME LEFT:  2.00D  GRAD.:     1.760 HEAT: -77.10726
 CYCLE:   383 TIME:   0.062 TIME LEFT:  2.00D  GRAD.:     3.900 HEAT: -77.10935
 CYCLE:   384 TIME:   0.062 TIME LEFT:  2.00D  GRAD.:     2.192 HEAT: -77.11533
 CYCLE:   385 TIME:   0.062 TIME LEFT:  2.00D  GRAD.:     2.015 HEAT: -77.11754
 CYCLE:   386 TIME:   0.062 TIME LEFT:  2.00D  GRAD.:     1.454 HEAT: -77.12049
 CYCLE:   387 TIME:   0.062 TIME LEFT:  2.00D  GRAD.:     2.967 HEAT: -77.12224
 CYCLE:   388 TIME:   0.062 TIME LEFT:  2.00D  GRAD.:     2.219 HEAT: -77.12685
 CYCLE:   389 TIME:   0.055 TIME LEFT:  2.00D  GRAD.:     1.438 HEAT: -77.12940
 CYCLE:   390 TIME:   0.055 TIME LEFT:  2.00D  GRAD.:     1.850 HEAT: -77.13131
 CYCLE:   391 TIME:   0.062 TIME LEFT:  2.00D  GRAD.:     3.815 HEAT: -77.13360
 CYCLE:   392 TIME:   0.055 TIME LEFT:  2.00D  GRAD.:     2.710 HEAT: -77.13657
 CYCLE:   393 TIME:   0.055 TIME LEFT:  2.00D  GRAD.:     2.033 HEAT: -77.13901
 CYCLE:   394 TIME:   0.062 TIME LEFT:  2.00D  GRAD.:     2.817 HEAT: -77.13981
 CYCLE:   395 TIME:   0.062 TIME LEFT:  2.00D  GRAD.:     5.009 HEAT: -77.14184
 CYCLE:   396 TIME:   0.055 TIME LEFT:  2.00D  GRAD.:     1.676 HEAT: -77.14515
 CYCLE:   397 TIME:   0.062 TIME LEFT:  2.00D  GRAD.:     1.411 HEAT: -77.14671
 CYCLE:   398 TIME:   0.062 TIME LEFT:  2.00D  GRAD.:     3.102 HEAT: -77.14927
 CYCLE:   399 TIME:   0.055 TIME LEFT:  2.00D  GRAD.:     2.458 HEAT: -77.15216
 CYCLE:   400 TIME:   0.062 TIME LEFT:  2.00D  GRAD.:     2.479 HEAT: -77.15749
 CYCLE:   401 TIME:   0.062 TIME LEFT:  2.00D  GRAD.:     4.489 HEAT: -77.15915
 CYCLE:   402 TIME:   0.055 TIME LEFT:  2.00D  GRAD.:     2.314 HEAT: -77.16482
 CYCLE:   403 TIME:   0.062 TIME LEFT:  2.00D  GRAD.:     1.516 HEAT: -77.16900
 CYCLE:   404 TIME:   0.062 TIME LEFT:  2.00D  GRAD.:     2.435 HEAT: -77.17358
 CYCLE:   405 TIME:   0.062 TIME LEFT:  2.00D  GRAD.:     2.705 HEAT: -77.17826
 CYCLE:   406 TIME:   0.062 TIME LEFT:  2.00D  GRAD.:    11.766 HEAT: -77.16844
 CYCLE:   407 TIME:   0.062 TIME LEFT:  2.00D  GRAD.:     1.437 HEAT: -77.18175
 CYCLE:   408 TIME:   0.055 TIME LEFT:  2.00D  GRAD.:     1.372 HEAT: -77.18267
 CYCLE:   409 TIME:   0.062 TIME LEFT:  2.00D  GRAD.:     2.500 HEAT: -77.18665
 CYCLE:   410 TIME:   0.055 TIME LEFT:  2.00D  GRAD.:     4.041 HEAT: -77.18973
 CYCLE:   411 TIME:   0.055 TIME LEFT:  2.00D  GRAD.:     2.086 HEAT: -77.19329
 CYCLE:   412 TIME:   0.062 TIME LEFT:  2.00D  GRAD.:     1.721 HEAT: -77.19569
 CYCLE:   413 TIME:   0.070 TIME LEFT:  2.00D  GRAD.:     2.830 HEAT: -77.19758
 CYCLE:   414 TIME:   0.055 TIME LEFT:  2.00D  GRAD.:     2.100 HEAT: -77.20130
 CYCLE:   415 TIME:   0.062 TIME LEFT:  2.00D  GRAD.:     1.657 HEAT: -77.20478
 CYCLE:   416 TIME:   0.055 TIME LEFT:  2.00D  GRAD.:     1.691 HEAT: -77.20725
 CYCLE:   417 TIME:   0.062 TIME LEFT:  2.00D  GRAD.:     1.927 HEAT: -77.20993
 CYCLE:   418 TIME:   0.062 TIME LEFT:  2.00D  GRAD.:     6.579 HEAT: -77.20891
 CYCLE:   419 TIME:   0.062 TIME LEFT:  2.00D  GRAD.:     1.696 HEAT: -77.21586
 CYCLE:   420 TIME:   0.055 TIME LEFT:  2.00D  GRAD.:     1.255 HEAT: -77.21697
 CYCLE:   421 TIME:   0.062 TIME LEFT:  2.00D  GRAD.:     1.729 HEAT: -77.21835
 CYCLE:   422 TIME:   0.062 TIME LEFT:  2.00D  GRAD.:     3.298 HEAT: -77.22011
 CYCLE:   423 TIME:   0.055 TIME LEFT:  2.00D  GRAD.:     1.530 HEAT: -77.22230
 CYCLE:   424 TIME:   0.055 TIME LEFT:  2.00D  GRAD.:     1.313 HEAT: -77.22403
 CYCLE:   425 TIME:   0.062 TIME LEFT:  2.00D  GRAD.:     2.655 HEAT: -77.22514
 CYCLE:   426 TIME:   0.055 TIME LEFT:  2.00D  GRAD.:     2.252 HEAT: -77.22776
 CYCLE:   427 TIME:   0.055 TIME LEFT:  2.00D  GRAD.:     1.616 HEAT: -77.23100
 CYCLE:   428 TIME:   0.055 TIME LEFT:  2.00D  GRAD.:     2.409 HEAT: -77.23427
 CYCLE:   429 TIME:   0.062 TIME LEFT:  2.00D  GRAD.:     2.962 HEAT: -77.23974
 CYCLE:   430 TIME:   0.062 TIME LEFT:  2.00D  GRAD.:     4.433 HEAT: -77.24232
 CYCLE:   431 TIME:   0.055 TIME LEFT:  2.00D  GRAD.:     2.402 HEAT: -77.24908
 CYCLE:   432 TIME:   0.062 TIME LEFT:  2.00D  GRAD.:     2.607 HEAT: -77.25255
 CYCLE:   433 TIME:   0.055 TIME LEFT:  2.00D  GRAD.:     7.632 HEAT: -77.25525
 CYCLE:   434 TIME:   0.055 TIME LEFT:  2.00D  GRAD.:     3.129 HEAT: -77.26469
 CYCLE:   435 TIME:   0.055 TIME LEFT:  2.00D  GRAD.:     2.123 HEAT: -77.27064
 CYCLE:   436 TIME:   0.070 TIME LEFT:  2.00D  GRAD.:     3.769 HEAT: -77.27517
 CYCLE:   437 TIME:   0.055 TIME LEFT:  2.00D  GRAD.:     6.733 HEAT: -77.27632
 CYCLE:   438 TIME:   0.055 TIME LEFT:  2.00D  GRAD.:     3.649 HEAT: -77.28406
 CYCLE:   439 TIME:   0.055 TIME LEFT:  2.00D  GRAD.:     1.984 HEAT: -77.28688
 CYCLE:   440 TIME:   0.062 TIME LEFT:  2.00D  GRAD.:     1.824 HEAT: -77.28871
 CYCLE:   441 TIME:   0.062 TIME LEFT:  2.00D  GRAD.:     2.569 HEAT: -77.29284
 CYCLE:   442 TIME:   0.055 TIME LEFT:  2.00D  GRAD.:     1.975 HEAT: -77.29624
 CYCLE:   443 TIME:   0.055 TIME LEFT:  2.00D  GRAD.:     1.594 HEAT: -77.29859
 CYCLE:   444 TIME:   0.062 TIME LEFT:  2.00D  GRAD.:     2.496 HEAT: -77.30167
 CYCLE:   445 TIME:   0.055 TIME LEFT:  2.00D  GRAD.:     1.796 HEAT: -77.30443
 CYCLE:   446 TIME:   0.070 TIME LEFT:  2.00D  GRAD.:     1.462 HEAT: -77.30649
 CYCLE:   447 TIME:   0.062 TIME LEFT:  2.00D  GRAD.:     1.650 HEAT: -77.30809
 CYCLE:   448 TIME:   0.055 TIME LEFT:  2.00D  GRAD.:     1.819 HEAT: -77.31042
 CYCLE:   449 TIME:   0.062 TIME LEFT:  2.00D  GRAD.:     1.830 HEAT: -77.31295
 CYCLE:   450 TIME:   0.062 TIME LEFT:  2.00D  GRAD.:     2.905 HEAT: -77.31461
 CYCLE:   451 TIME:   0.055 TIME LEFT:  2.00D  GRAD.:     1.892 HEAT: -77.31776
 CYCLE:   452 TIME:   0.055 TIME LEFT:  2.00D  GRAD.:     1.665 HEAT: -77.31910
 CYCLE:   453 TIME:   0.062 TIME LEFT:  2.00D  GRAD.:     1.575 HEAT: -77.32031
 CYCLE:   454 TIME:   0.070 TIME LEFT:  2.00D  GRAD.:     2.269 HEAT: -77.32257
 CYCLE:   455 TIME:   0.055 TIME LEFT:  2.00D  GRAD.:     3.258 HEAT: -77.32494
 CYCLE:   456 TIME:   0.055 TIME LEFT:  2.00D  GRAD.:     2.034 HEAT: -77.32748
 CYCLE:   457 TIME:   0.070 TIME LEFT:  2.00D  GRAD.:     1.911 HEAT: -77.32879
 CYCLE:   458 TIME:   0.055 TIME LEFT:  2.00D  GRAD.:     4.403 HEAT: -77.32999
 CYCLE:   459 TIME:   0.055 TIME LEFT:  2.00D  GRAD.:     1.489 HEAT: -77.33419
 CYCLE:   460 TIME:   0.070 TIME LEFT:  2.00D  GRAD.:     1.164 HEAT: -77.33614
 CYCLE:   461 TIME:   0.070 TIME LEFT:  2.00D  GRAD.:     2.302 HEAT: -77.33783
 CYCLE:   462 TIME:   0.055 TIME LEFT:  2.00D  GRAD.:     1.782 HEAT: -77.34087
 CYCLE:   463 TIME:   0.062 TIME LEFT:  2.00D  GRAD.:     3.182 HEAT: -77.34250
 CYCLE:   464 TIME:   0.055 TIME LEFT:  2.00D  GRAD.:     2.129 HEAT: -77.34529
 CYCLE:   465 TIME:   0.062 TIME LEFT:  2.00D  GRAD.:     3.176 HEAT: -77.34628
 CYCLE:   466 TIME:   0.055 TIME LEFT:  2.00D  GRAD.:     3.097 HEAT: -77.34846
 CYCLE:   467 TIME:   0.062 TIME LEFT:  2.00D  GRAD.:     1.652 HEAT: -77.35125
 CYCLE:   468 TIME:   0.062 TIME LEFT:  2.00D  GRAD.:     2.521 HEAT: -77.35436
 CYCLE:   469 TIME:   0.062 TIME LEFT:  2.00D  GRAD.:     5.472 HEAT: -77.35583
 CYCLE:   470 TIME:   0.055 TIME LEFT:  2.00D  GRAD.:     2.907 HEAT: -77.35907
 CYCLE:   471 TIME:   0.062 TIME LEFT:  2.00D  GRAD.:     2.877 HEAT: -77.36167
 CYCLE:   472 TIME:   0.055 TIME LEFT:  2.00D  GRAD.:     3.293 HEAT: -77.36496
 CYCLE:   473 TIME:   0.055 TIME LEFT:  2.00D  GRAD.:     3.048 HEAT: -77.36978
 CYCLE:   474 TIME:   0.062 TIME LEFT:  2.00D  GRAD.:     2.297 HEAT: -77.37542
 CYCLE:   475 TIME:   0.062 TIME LEFT:  2.00D  GRAD.:     2.811 HEAT: -77.37955
 CYCLE:   476 TIME:   0.055 TIME LEFT:  2.00D  GRAD.:     8.725 HEAT: -77.38051
 CYCLE:   477 TIME:   0.055 TIME LEFT:  2.00D  GRAD.:     3.344 HEAT: -77.39117
 CYCLE:   478 TIME:   0.062 TIME LEFT:  2.00D  GRAD.:     3.073 HEAT: -77.39289
 CYCLE:   479 TIME:   0.062 TIME LEFT:  2.00D  GRAD.:     3.152 HEAT: -77.39887
 CYCLE:   480 TIME:   0.055 TIME LEFT:  2.00D  GRAD.:     3.217 HEAT: -77.40671
 CYCLE:   481 TIME:   0.062 TIME LEFT:  2.00D  GRAD.:     3.459 HEAT: -77.41485
 CYCLE:   482 TIME:   0.062 TIME LEFT:  2.00D  GRAD.:     6.811 HEAT: -77.42620
 CYCLE:   483 TIME:   0.055 TIME LEFT:  2.00D  GRAD.:     6.322 HEAT: -77.43404
 CYCLE:   484 TIME:   0.062 TIME LEFT:  2.00D  GRAD.:     6.617 HEAT: -77.44753
 CYCLE:   485 TIME:   0.055 TIME LEFT:  2.00D  GRAD.:    13.489 HEAT: -77.55095
 CYCLE:   486 TIME:   0.062 TIME LEFT:  2.00D  GRAD.:     3.888 HEAT: -77.46710
 CYCLE:   487 TIME:   0.062 TIME LEFT:  2.00D  GRAD.:     3.991 HEAT: -77.46046
 CYCLE:   488 TIME:   0.062 TIME LEFT:  2.00D  GRAD.:     3.904 HEAT: -77.48103
 CYCLE:   489 TIME:   0.062 TIME LEFT:  2.00D  GRAD.:     5.495 HEAT: -77.59190
 CYCLE:   490 TIME:   0.062 TIME LEFT:  2.00D  GRAD.:     5.793 HEAT: -77.60872
 CYCLE:   491 TIME:   0.055 TIME LEFT:  2.00D  GRAD.:     4.526 HEAT: -77.62648
 CYCLE:   492 TIME:   0.055 TIME LEFT:  2.00D  GRAD.:     6.303 HEAT: -77.65678
 CYCLE:   493 TIME:   0.070 TIME LEFT:  2.00D  GRAD.:     9.133 HEAT: -77.66747
 CYCLE:   494 TIME:   0.055 TIME LEFT:  2.00D  GRAD.:    69.639 HEAT: -76.85660
 CYCLE:   495 TIME:   0.062 TIME LEFT:  2.00D  GRAD.:     3.500 HEAT: -77.70171
 CYCLE:   496 TIME:   0.070 TIME LEFT:  2.00D  GRAD.:     5.666 HEAT: -77.72209
 CYCLE:   497 TIME:   0.055 TIME LEFT:  2.00D  GRAD.:     5.523 HEAT: -77.75263
 CYCLE:   498 TIME:   0.055 TIME LEFT:  2.00D  GRAD.:     7.061 HEAT: -77.79156
 CYCLE:   499 TIME:   0.070 TIME LEFT:  2.00D  GRAD.:    21.107 HEAT: -77.75470
 CYCLE:   500 TIME:   0.055 TIME LEFT:  2.00D  GRAD.:     5.491 HEAT: -77.81865
 CYCLE:   501 TIME:   0.055 TIME LEFT:  2.00D  GRAD.:     5.506 HEAT: -77.82867
 CYCLE:   502 TIME:   0.055 TIME LEFT:  2.00D  GRAD.:     4.606 HEAT: -77.84293
 CYCLE:   503 TIME:   0.070 TIME LEFT:  2.00D  GRAD.:     8.612 HEAT: -77.86951
 CYCLE:   504 TIME:   0.062 TIME LEFT:  2.00D  GRAD.:    84.253 HEAT: -77.17998
 CYCLE:   505 TIME:   0.062 TIME LEFT:  2.00D  GRAD.:     6.966 HEAT: -77.92501
 CYCLE:   506 TIME:   0.055 TIME LEFT:  2.00D  GRAD.:     7.862 HEAT: -77.94633
 CYCLE:   507 TIME:   0.062 TIME LEFT:  2.00D  GRAD.:    12.003 HEAT: -77.98674
 CYCLE:   508 TIME:   0.055 TIME LEFT:  2.00D  GRAD.:     7.863 HEAT: -78.05648
 CYCLE:   509 TIME:   0.055 TIME LEFT:  2.00D  GRAD.:     5.955 HEAT: -78.09250
 CYCLE:   510 TIME:   0.062 TIME LEFT:  2.00D  GRAD.:     7.141 HEAT: -78.12348
 CYCLE:   511 TIME:   0.055 TIME LEFT:  2.00D  GRAD.:     7.979 HEAT: -78.16270
 CYCLE:   512 TIME:   0.055 TIME LEFT:  2.00D  GRAD.:     5.381 HEAT: -78.20546
 CYCLE:   513 TIME:   0.062 TIME LEFT:  2.00D  GRAD.:     6.916 HEAT: -78.23330
 CYCLE:   514 TIME:   0.055 TIME LEFT:  2.00D  GRAD.:     7.816 HEAT: -78.24984
 CYCLE:   515 TIME:   0.055 TIME LEFT:  2.00D  GRAD.:     5.004 HEAT: -78.26568
 CYCLE:   516 TIME:   0.055 TIME LEFT:  2.00D  GRAD.:     4.587 HEAT: -78.28688
 CYCLE:   517 TIME:   0.062 TIME LEFT:  2.00D  GRAD.:     4.938 HEAT: -78.30828
 CYCLE:   518 TIME:   0.055 TIME LEFT:  2.00D  GRAD.:     8.038 HEAT: -78.33643
 CYCLE:   519 TIME:   0.055 TIME LEFT:  2.00D  GRAD.:    14.072 HEAT: -78.34604
 CYCLE:   520 TIME:   0.062 TIME LEFT:  2.00D  GRAD.:     4.451 HEAT: -78.37762
 CYCLE:   521 TIME:   0.055 TIME LEFT:  2.00D  GRAD.:     3.725 HEAT: -78.38825
 CYCLE:   522 TIME:   0.055 TIME LEFT:  2.00D  GRAD.:     4.944 HEAT: -78.40687
 CYCLE:   523 TIME:   0.070 TIME LEFT:  2.00D  GRAD.:     6.669 HEAT: -78.42132
 CYCLE:   524 TIME:   0.070 TIME LEFT:  2.00D  GRAD.:     3.253 HEAT: -78.43370
 CYCLE:   525 TIME:   0.062 TIME LEFT:  2.00D  GRAD.:     3.344 HEAT: -78.44208
 CYCLE:   526 TIME:   0.055 TIME LEFT:  2.00D  GRAD.:     3.708 HEAT: -78.45250
 CYCLE:   527 TIME:   0.055 TIME LEFT:  2.00D  GRAD.:     5.741 HEAT: -78.45789
 CYCLE:   528 TIME:   0.055 TIME LEFT:  2.00D  GRAD.:     2.462 HEAT: -78.46504
 CYCLE:   529 TIME:   0.055 TIME LEFT:  2.00D  GRAD.:     2.246 HEAT: -78.46900
 CYCLE:   530 TIME:   0.062 TIME LEFT:  2.00D  GRAD.:     3.008 HEAT: -78.47426
 CYCLE:   531 TIME:   0.055 TIME LEFT:  2.00D  GRAD.:     7.706 HEAT: -78.47767
 CYCLE:   532 TIME:   0.055 TIME LEFT:  2.00D  GRAD.:     2.981 HEAT: -78.48543
 CYCLE:   533 TIME:   0.055 TIME LEFT:  2.00D  GRAD.:     2.865 HEAT: -78.49013
 CYCLE:   534 TIME:   0.062 TIME LEFT:  2.00D  GRAD.:     3.353 HEAT: -78.49478
 CYCLE:   535 TIME:   0.055 TIME LEFT:  2.00D  GRAD.:     4.002 HEAT: -78.50438
 CYCLE:   536 TIME:   0.055 TIME LEFT:  2.00D  GRAD.:    14.010 HEAT: -78.48835
 CYCLE:   537 TIME:   0.055 TIME LEFT:  2.00D  GRAD.:     2.378 HEAT: -78.51613
 CYCLE:   538 TIME:   0.055 TIME LEFT:  2.00D  GRAD.:     2.223 HEAT: -78.52011
 CYCLE:   539 TIME:   0.070 TIME LEFT:  2.00D  GRAD.:     5.044 HEAT: -78.53385
 CYCLE:   540 TIME:   0.055 TIME LEFT:  2.00D  GRAD.:     5.791 HEAT: -78.54326
 CYCLE:   541 TIME:   0.055 TIME LEFT:  2.00D  GRAD.:     3.499 HEAT: -78.55171
 CYCLE:   542 TIME:   0.055 TIME LEFT:  2.00D  GRAD.:     2.621 HEAT: -78.56082
 CYCLE:   543 TIME:   0.055 TIME LEFT:  2.00D  GRAD.:     3.447 HEAT: -78.56714
 CYCLE:   544 TIME:   0.055 TIME LEFT:  2.00D  GRAD.:     5.496 HEAT: -78.57472
 CYCLE:   545 TIME:   0.055 TIME LEFT:  2.00D  GRAD.:     3.404 HEAT: -78.58417
 CYCLE:   546 TIME:   0.055 TIME LEFT:  2.00D  GRAD.:     2.827 HEAT: -78.59236
 CYCLE:   547 TIME:   0.055 TIME LEFT:  2.00D  GRAD.:     3.512 HEAT: -78.60052
 CYCLE:   548 TIME:   0.062 TIME LEFT:  2.00D  GRAD.:    11.813 HEAT: -78.59624
 CYCLE:   549 TIME:   0.055 TIME LEFT:  2.00D  GRAD.:     3.368 HEAT: -78.60870
 CYCLE:   550 TIME:   0.055 TIME LEFT:  2.00D  GRAD.:     2.048 HEAT: -78.61164
 CYCLE:   551 TIME:   0.055 TIME LEFT:  2.00D  GRAD.:     3.384 HEAT: -78.61626
 CYCLE:   552 TIME:   0.055 TIME LEFT:  2.00D  GRAD.:     4.024 HEAT: -78.62072
 CYCLE:   553 TIME:   0.055 TIME LEFT:  2.00D  GRAD.:     6.193 HEAT: -78.62988
 CYCLE:   554 TIME:   0.055 TIME LEFT:  2.00D  GRAD.:     5.699 HEAT: -78.63203
 CYCLE:   555 TIME:   0.078 TIME LEFT:  2.00D  GRAD.:     2.142 HEAT: -78.63928
 CYCLE:   556 TIME:   0.055 TIME LEFT:  2.00D  GRAD.:     1.677 HEAT: -78.64177
 CYCLE:   557 TIME:   0.055 TIME LEFT:  2.00D  GRAD.:     2.065 HEAT: -78.64579
 CYCLE:   558 TIME:   0.062 TIME LEFT:  2.00D  GRAD.:     2.994 HEAT: -78.65155
 CYCLE:   559 TIME:   0.055 TIME LEFT:  2.00D  GRAD.:     5.174 HEAT: -78.65174
 CYCLE:   560 TIME:   0.055 TIME LEFT:  2.00D  GRAD.:     1.657 HEAT: -78.65660
 CYCLE:   561 TIME:   0.055 TIME LEFT:  2.00D  GRAD.:     1.213 HEAT: -78.65801
 CYCLE:   562 TIME:   0.055 TIME LEFT:  2.00D  GRAD.:     1.604 HEAT: -78.65993
 CYCLE:   563 TIME:   0.062 TIME LEFT:  2.00D  GRAD.:     2.715 HEAT: -78.66239
 CYCLE:   564 TIME:   0.055 TIME LEFT:  2.00D  GRAD.:     3.206 HEAT: -78.66459
 CYCLE:   565 TIME:   0.055 TIME LEFT:  2.00D  GRAD.:     1.673 HEAT: -78.66680
 CYCLE:   566 TIME:   0.062 TIME LEFT:  2.00D  GRAD.:     1.797 HEAT: -78.66910
 CYCLE:   567 TIME:   0.055 TIME LEFT:  2.00D  GRAD.:     1.869 HEAT: -78.67099
 CYCLE:   568 TIME:   0.062 TIME LEFT:  2.00D  GRAD.:     2.383 HEAT: -78.67460
 CYCLE:   569 TIME:   0.062 TIME LEFT:  2.00D  GRAD.:     4.127 HEAT: -78.67450
 CYCLE:   570 TIME:   0.055 TIME LEFT:  2.00D  GRAD.:     1.410 HEAT: -78.67835
 CYCLE:   571 TIME:   0.062 TIME LEFT:  2.00D  GRAD.:     1.039 HEAT: -78.67950
 CYCLE:   572 TIME:   0.055 TIME LEFT:  2.00D  GRAD.:     1.979 HEAT: -78.68252
 CYCLE:   573 TIME:   0.062 TIME LEFT:  2.00D  GRAD.:     2.120 HEAT: -78.68542
 CYCLE:   574 TIME:   0.062 TIME LEFT:  2.00D  GRAD.:     1.742 HEAT: -78.68798
 CYCLE:   575 TIME:   0.055 TIME LEFT:  2.00D  GRAD.:     1.613 HEAT: -78.69043
 CYCLE:   576 TIME:   0.055 TIME LEFT:  2.00D  GRAD.:     1.984 HEAT: -78.69370
 CYCLE:   577 TIME:   0.055 TIME LEFT:  2.00D  GRAD.:     2.577 HEAT: -78.69649
 CYCLE:   578 TIME:   0.062 TIME LEFT:  2.00D  GRAD.:     2.796 HEAT: -78.69903
 CYCLE:   579 TIME:   0.055 TIME LEFT:  2.00D  GRAD.:     2.082 HEAT: -78.70067
 CYCLE:   580 TIME:   0.055 TIME LEFT:  2.00D  GRAD.:     1.451 HEAT: -78.70166
 CYCLE:   581 TIME:   0.055 TIME LEFT:  2.00D  GRAD.:     1.114 HEAT: -78.70292
 CYCLE:   582 TIME:   0.055 TIME LEFT:  2.00D  GRAD.:     1.496 HEAT: -78.70489
 CYCLE:   583 TIME:   0.070 TIME LEFT:  2.00D  GRAD.:     2.125 HEAT: -78.70633
 CYCLE:   584 TIME:   0.055 TIME LEFT:  2.00D  GRAD.:     1.168 HEAT: -78.70766
 CYCLE:   585 TIME:   0.055 TIME LEFT:  2.00D  GRAD.:     0.878 HEAT: -78.70844

 -------------------------------------------------------------------------------
 PM7 XYZ

 Lipophilicity_232 - geometry optimisation


     HERBERTS TEST WAS SATISFIED IN BFGS                      
     SCF FIELD WAS ACHIEVED                                   


                              PM7 CALCULATION
                                                       MOPAC v23.0.3 Linux
                                                       Fri Jul 25 19:12:46 2025




          FINAL HEAT OF FORMATION =        -78.70844 KCAL/MOL =    -329.31611 KJ/MOL


          COSMO AREA              =        454.48 SQUARE ANGSTROMS
          COSMO VOLUME            =        574.80 CUBIC ANGSTROMS

          GRADIENT NORM           =          0.87821          =       0.10978 PER ATOM
          IONIZATION POTENTIAL    =          8.772900 EV
          HOMO LUMO ENERGIES (EV) =         -8.773 -1.091
          NO. OF FILLED LEVELS    =         90
          MOLECULAR WEIGHT        =        471.5548         POINT GROUP:  C1  

          MOLECULAR DIMENSIONS (Angstroms)

            Atom       Atom       Distance
            H    36    N    34    14.97576
            H    61    H    49    10.30579
            H    38    H    42     9.11081


          SCF CALCULATIONS        =        586

          WALL-CLOCK TIME         =     34.641 SECONDS
          COMPUTATION TIME        =         11 MINUTES AND 30.951 SECONDS




   ATOM   CHEMICAL          X               Y               Z
  NUMBER   SYMBOL      (ANGSTROMS)     (ANGSTROMS)     (ANGSTROMS)

     1       O         -1.36783421  *  -7.51786937  *   1.51870408  *
     2       C         -1.43865839  *  -6.25325203  *   2.00738245  *
     3       C         -1.90227145  *  -5.98251930  *   3.29639465  *
     4       C         -1.93120616  *  -4.65211097  *   3.71145353  *
     5       C         -1.51338035  *  -3.63154399  *   2.86931563  *
     6       C         -1.05361821  *  -3.93408390  *   1.56554136  *
     7       N         -0.63193295  *  -2.84653103  *   0.78093462  *
     8       C         -0.34147592  *  -2.89096230  *  -0.58732603  *
     9       O         -0.37851746  *  -3.92500803  *  -1.21617601  *
    10       C          0.07904967  *  -1.61234725  *  -1.20423068  *
    11       C          0.98996823  *  -1.70814856  *  -2.26901313  *
    12       C          1.47046935  *  -0.58008770  *  -2.90762372  *
    13       C          1.01014299  *   0.68518236  *  -2.49213729  *
    14       O          1.55056373  *   1.70344719  *  -3.18725056  *
    15       C          1.46829496  *   3.03641624  *  -2.67668320  *
    16       C          2.64473636  *   3.29347848  *  -1.74169350  *
    17       C          2.35524808  *   2.92753354  *  -0.27313013  *
    18       N          3.52087972  *   2.21887974  *   0.31204037  *
    19       C          3.36855831  *   2.05666071  *   1.78319510  *
    20       C          2.69688371  *   0.68777795  *   2.04799893  *
    21       C          2.94904746  *  -0.13306968  *   0.77216338  *
    22       C          3.66687620  *   0.83136267  *  -0.20332480  *
    23       C          0.05568660  *   0.81622166  *  -1.48218100  *
    24       C         -0.38516080  *  -0.33946817  *  -0.84198900  *
    25       O         -1.29681820  *  -0.34037144  *   0.16668859  *
    26       C         -1.65991163  *   0.89459810  *   0.77278046  *
    27       C         -2.53740539  *   1.72225756  *  -0.11330444  *
    28       C         -3.31954151  *   1.10888856  *  -1.09398144  *
    29       C         -4.13125379  *   1.88016325  *  -1.92255900  *
    30       C         -4.16965933  *   3.26435504  *  -1.77346249  *
    31       C         -3.38818574  *   3.87364601  *  -0.78587878  *
    32       C         -2.57053189  *   3.10582849  *   0.04886538  *
    33       C         -3.42084704  *   5.28685226  *  -0.63272194  *
    34       N         -3.44738415  *   6.43770785  *  -0.51210711  *
    35       C         -1.01183091  *  -5.25779813  *   1.12520250  *
    36       H         -1.67926861  *  -8.18899882  *   2.17242015  *
    37       H         -2.22967664  *  -6.77556836  *   3.95455940  *
    38       H         -2.28919406  *  -4.41152114  *   4.71321318  *
    39       H         -1.54436123  *  -2.60335927  *   3.21081228  *
    40       H         -0.64810434  *  -1.93376716  *   1.22882955  *
    41       H          1.32550520  *  -2.70515576  *  -2.58577307  *
    42       H          2.19000865  *  -0.64811119  *  -3.71933049  *
    43       H          0.48696958  *   3.24537783  *  -2.22532632  *
    44       H          1.55668033  *   3.61636357  *  -3.62006955  *
    45       H          3.53521948  *   2.73428424  *  -2.10664562  *
    46       H          2.95162928  *   4.35591206  *  -1.80310098  *
    47       H          2.19719017  *   3.86194004  *   0.31017908  *
    48       H          1.42203999  *   2.33672466  *  -0.18173910  *
    49       H          4.39470087  *   2.07794924  *   2.21036600  *
    50       H          2.81497490  *   2.89369850  *   2.23891714  *
    51       H          1.62074982  *   0.80503611  *   2.24229109  *
    52       H          3.12377413  *   0.19964506  *   2.93690856  *
    53       H          2.00728304  *  -0.50574222  *   0.33850032  *
    54       H          3.56620064  *  -1.02201069  *   0.97405374  *
    55       H          4.75654693  *   0.61872421  *  -0.23731310  *
    56       H          3.28843740  *   0.72998362  *  -1.23638668  *
    57       H         -0.34496829  *   1.78966372  *  -1.22567146  *
    58       H         -2.21931781  *   0.52699147  *   1.66415772  *
    59       H         -0.74956312  *   1.42594313  *   1.10843217  *
    60       H         -3.28609178  *   0.02194923  *  -1.21518901  *
    61       H         -4.73753268  *   1.39867207  *  -2.69095745  *
    62       H         -4.80433288  *   3.87076374  *  -2.42066987  *
    63       H         -1.96943823  *   3.59249756  *   0.81712777  *
    64       H         -0.66517940  *  -5.53530057  *   0.12753282  *

                             CARTESIAN COORDINATES

   1    O       -1.367834206    -7.517869371     1.518704080
   2    C       -1.438658392    -6.253252027     2.007382445
   3    C       -1.902271453    -5.982519296     3.296394646
   4    C       -1.931206159    -4.652110965     3.711453530
   5    C       -1.513380355    -3.631543985     2.869315631
   6    C       -1.053618212    -3.934083898     1.565541358
   7    N       -0.631932948    -2.846531032     0.780934620
   8    C       -0.341475917    -2.890962303    -0.587326032
   9    O       -0.378517458    -3.925008026    -1.216176007
  10    C        0.079049669    -1.612347249    -1.204230683
  11    C        0.989968234    -1.708148557    -2.269013132
  12    C        1.470469347    -0.580087698    -2.907623721
  13    C        1.010142994     0.685182359    -2.492137285
  14    O        1.550563728     1.703447192    -3.187250559
  15    C        1.468294957     3.036416244    -2.676683197
  16    C        2.644736358     3.293478479    -1.741693499
  17    C        2.355248083     2.927533544    -0.273130132
  18    N        3.520879723     2.218879735     0.312040373
  19    C        3.368558305     2.056660708     1.783195101
  20    C        2.696883708     0.687777948     2.047998935
  21    C        2.949047462    -0.133069682     0.772163383
  22    C        3.666876204     0.831362671    -0.203324805
  23    C        0.055686601     0.816221661    -1.482181004
  24    C       -0.385160797    -0.339468170    -0.841988998
  25    O       -1.296818197    -0.340371438     0.166688588
  26    C       -1.659911625     0.894598100     0.772780457
  27    C       -2.537405393     1.722257555    -0.113304443
  28    C       -3.319541509     1.108888559    -1.093981443
  29    C       -4.131253786     1.880163247    -1.922558999
  30    C       -4.169659329     3.264355045    -1.773462489
  31    C       -3.388185741     3.873646012    -0.785878777
  32    C       -2.570531892     3.105828490     0.048865380
  33    C       -3.420847039     5.286852256    -0.632721939
  34    N       -3.447384150     6.437707854    -0.512107106
  35    C       -1.011830909    -5.257798131     1.125202505
  36    H       -1.679268608    -8.188998819     2.172420149
  37    H       -2.229676641    -6.775568362     3.954559404
  38    H       -2.289194055    -4.411521137     4.713213176
  39    H       -1.544361225    -2.603359267     3.210812276
  40    H       -0.648104340    -1.933767163     1.228829547
  41    H        1.325505198    -2.705155763    -2.585773065
  42    H        2.190008654    -0.648111188    -3.719330488
  43    H        0.486969576     3.245377829    -2.225326317
  44    H        1.556680326     3.616363573    -3.620069553
  45    H        3.535219479     2.734284242    -2.106645621
  46    H        2.951629277     4.355912055    -1.803100975
  47    H        2.197190171     3.861940040     0.310179077
  48    H        1.422039991     2.336724662    -0.181739105
  49    H        4.394700866     2.077949241     2.210365999
  50    H        2.814974896     2.893698501     2.238917136
  51    H        1.620749818     0.805036107     2.242291090
  52    H        3.123774128     0.199645060     2.936908560
  53    H        2.007283036    -0.505742216     0.338500323
  54    H        3.566200638    -1.022010693     0.974053736
  55    H        4.756546929     0.618724211    -0.237313097
  56    H        3.288437402     0.729983620    -1.236386675
  57    H       -0.344968294     1.789663723    -1.225671455
  58    H       -2.219317813     0.526991472     1.664157720
  59    H       -0.749563124     1.425943135     1.108432169
  60    H       -3.286091779     0.021949226    -1.215189014
  61    H       -4.737532678     1.398672070    -2.690957452
  62    H       -4.804332883     3.870763735    -2.420669866
  63    H       -1.969438229     3.592497563     0.817127773
  64    H       -0.665179403    -5.535300570     0.127532819


           Empirical Formula: C28 H29 N3 O4  =    64 atoms



      MOLECULAR POINT GROUP   :   C1  


                  EIGENVALUES  
 -37.04883 -35.36236 -35.23715 -32.02042 -31.51543 -31.25387 -30.84898 -30.70613
 -30.26078 -29.75963 -28.32476 -28.11907 -27.34144 -27.27739 -26.61719 -26.18891
 -25.67221 -25.24083 -25.15770 -24.61731 -23.85036 -22.92187 -22.59882 -22.02601
 -21.53668 -21.43116 -21.29477 -20.75199 -20.37349 -20.10390 -19.66953 -19.41791
 -18.72793 -18.37436 -17.71753 -17.62578 -17.23389 -17.09961 -16.92312 -16.85720
 -16.77806 -16.45360 -16.37897 -16.11615 -15.93184 -15.78952 -15.47795 -15.35571
 -15.28159 -15.23694 -15.06777 -15.02064 -14.89869 -14.57517 -14.50468 -14.42543
 -14.21599 -14.08035 -14.04623 -13.90863 -13.82838 -13.72480 -13.67837 -13.63498
 -13.34005 -13.25387 -13.09261 -13.02718 -12.91114 -12.84287 -12.72775 -12.68266
 -12.56669 -12.49648 -12.41188 -12.17856 -12.08832 -11.88458 -11.79505 -11.64711
 -11.31050 -11.11372 -10.68103 -10.48117 -10.44847 -10.13711  -9.48246  -9.28683
  -9.08567  -8.77290  -1.09087  -0.75517  -0.51364  -0.22683   0.21124   0.37710
   0.74592   0.82813   1.07278   1.26105   1.46843   1.87159   1.87806   2.13631
   2.55957   2.64531   2.68740   2.70299   2.82573   3.10803   3.33383   3.46855
   3.54390   3.63732   3.75991   3.78124   3.89339   3.90402   3.93022   3.99347
   4.09225   4.14691   4.16426   4.29670   4.34798   4.35408   4.47269   4.52475
   4.61285   4.61714   4.68513   4.75032   4.75692   4.78444   4.83865   4.90656
   4.98904   5.01388   5.08749   5.11619   5.16673   5.21143   5.26754   5.32555
   5.37042   5.38083   5.45055   5.49149   5.51029   5.54133   5.58759   5.62740
   5.72305   5.79958   5.82961   5.85587   5.90400   5.91562   6.01605   6.09463
   6.17125   6.17495   6.22703   6.31145   6.32886   6.42310   6.45166   6.47388
   6.93828


              NET ATOMIC CHARGES AND DIPOLE CONTRIBUTIONS

  ATOM NO.   TYPE          CHARGE      No. of ELECS.   s-Pop       p-Pop       
    1          O          -0.465887        6.4659     1.83829     4.62760
    2          C           0.339631        3.6604     1.08101     2.57936
    3          C          -0.373687        4.3737     1.07027     3.30341
    4          C          -0.018061        4.0181     1.08207     2.93600
    5          C          -0.341674        4.3417     1.06995     3.27172
    6          C           0.300070        3.6999     1.05620     2.64373
    7          N          -0.563543        5.5635     1.55427     4.00927
    8          C           0.629656        3.3703     1.06756     2.30279
    9          O          -0.500207        6.5002     1.87956     4.62065
   10          C          -0.326790        4.3268     1.05745     3.26934
   11          C           0.044768        3.9552     1.09380     2.86143
   12          C          -0.337879        4.3379     1.07239     3.26549
   13          C           0.360369        3.6396     1.09089     2.54874
   14          O          -0.336988        6.3370     1.86061     4.47638
   15          C          -0.036873        4.0369     1.09660     2.94028
   16          C          -0.325509        4.3255     1.06662     3.25889
   17          C          -0.120185        4.1202     1.06991     3.05028
   18          N          -0.414038        5.4140     1.70235     3.71168
   19          C          -0.117901        4.1179     1.07549     3.04241
   20          C          -0.296784        4.2968     1.06803     3.22876
   21          C          -0.299243        4.2992     1.06881     3.23043
   22          C          -0.120458        4.1205     1.07604     3.04442
   23          C          -0.460752        4.4608     1.06704     3.39371
   24          C           0.347657        3.6523     1.08418     2.56817
   25          O          -0.361724        6.3617     1.86133     4.50039
   26          C          -0.035283        4.0353     1.08982     2.94547
   27          C          -0.061548        4.0615     1.07151     2.99003
   28          C          -0.094844        4.0948     1.09126     3.00359
   29          C          -0.147771        4.1478     1.08542     3.06235
   30          C          -0.107654        4.1077     1.08783     3.01982
   31          C          -0.035777        4.0358     1.03974     2.99604
   32          C          -0.133221        4.1332     1.08444     3.04878
   33          C           0.105490        3.8945     1.10875     2.78576
   34          N          -0.231155        5.2312     1.83133     3.39982
   35          C          -0.327871        4.3279     1.07416     3.25371
   36          H           0.324923        0.6751     0.67508
   37          H           0.160943        0.8391     0.83906
   38          H           0.143809        0.8562     0.85619
   39          H           0.155591        0.8444     0.84441
   40          H           0.321603        0.6784     0.67840
   41          H           0.182416        0.8176     0.81758
   42          H           0.185841        0.8142     0.81416
   43          H           0.129372        0.8706     0.87063
   44          H           0.154034        0.8460     0.84597
   45          H           0.179959        0.8200     0.82004
   46          H           0.158254        0.8417     0.84175
   47          H           0.136356        0.8636     0.86364
   48          H           0.120816        0.8792     0.87918
   49          H           0.146405        0.8536     0.85360
   50          H           0.126816        0.8732     0.87318
   51          H           0.128466        0.8715     0.87153
   52          H           0.142258        0.8577     0.85774
   53          H           0.142135        0.8579     0.85786
   54          H           0.146167        0.8538     0.85383
   55          H           0.143965        0.8560     0.85604
   56          H           0.140800        0.8592     0.85920
   57          H           0.185640        0.8144     0.81436
   58          H           0.170299        0.8297     0.82970
   59          H           0.141491        0.8585     0.85851
   60          H           0.178776        0.8212     0.82122
   61          H           0.166838        0.8332     0.83316
   62          H           0.165698        0.8343     0.83430
   63          H           0.164950        0.8351     0.83505
   64          H           0.221047        0.7790     0.77895
 DIPOLE           X         Y         Z       TOTAL
 POINT-CHG.    -0.007     2.149     2.004     2.939
 HYBRID        -1.087    -0.557     0.423     1.293
 SUM           -1.094     1.592     2.428     3.103


          ATOMIC ORBITAL ELECTRON POPULATIONS

     Atom    s        px        py        pz   
    1  O   1.83829   1.83681   1.27594   1.51486
    2  C   1.08101   0.86797   0.79092   0.92047
    3  C   1.07027   1.19033   1.05999   1.05310
    4  C   1.08207   0.92251   0.96947   1.04402
    5  C   1.06995   1.16622   1.08621   1.01930
    6  C   1.05620   0.87599   0.87451   0.89323
    7  N   1.55427   1.64599   1.18356   1.17973
    8  C   1.06756   0.71721   0.84009   0.74550
    9  O   1.87956   1.54638   1.40895   1.66532
   10  C   1.05745   1.15810   0.98610   1.12514
   11  C   1.09380   0.89622   1.06336   0.90185
   12  C   1.07239   1.14833   0.97461   1.14255
   13  C   1.09089   0.84245   0.86034   0.84595
   14  O   1.86061   1.73770   1.24005   1.49862
   15  C   1.09660   1.06514   0.79528   1.07985
   16  C   1.06662   1.08044   1.17046   1.00798
   17  C   1.06991   0.97800   1.07826   0.99402
   18  N   1.70235   1.40430   1.21101   1.09637
   19  C   1.07549   1.12574   1.02360   0.89307
   20  C   1.06803   1.12755   1.03332   1.06789
   21  C   1.06881   1.14030   1.07283   1.01731
   22  C   1.07604   1.11924   0.86465   1.06053
   23  C   1.06704   1.15489   1.09414   1.14468
   24  C   1.08418   0.80541   0.95325   0.80951
   25  O   1.86133   1.60801   1.36569   1.52669
   26  C   1.08982   1.06890   0.88101   0.99556
   27  C   1.07151   1.00680   0.97603   1.00720
   28  C   1.09126   0.94969   1.09266   0.96124
   29  C   1.08542   1.02339   0.99707   1.04189
   30  C   1.08783   0.99952   1.01949   1.00081
   31  C   1.03974   1.04345   0.92025   1.03234
   32  C   1.08444   1.01930   0.99837   1.03111
   33  C   1.10875   0.93109   0.92459   0.93008
   34  N   1.83133   1.08750   1.22367   1.08865
   35  C   1.07416   1.15963   0.96624   1.12785
   36  H   0.67508
   37  H   0.83906
   38  H   0.85619
   39  H   0.84441
   40  H   0.67840
   41  H   0.81758
   42  H   0.81416
   43  H   0.87063
   44  H   0.84597
   45  H   0.82004
   46  H   0.84175
   47  H   0.86364
   48  H   0.87918
   49  H   0.85360
   50  H   0.87318
   51  H   0.87153
   52  H   0.85774
   53  H   0.85786
   54  H   0.85383
   55  H   0.85604
   56  H   0.85920
   57  H   0.81436
   58  H   0.82970
   59  H   0.85851
   60  H   0.82122
   61  H   0.83316
   62  H   0.83430
   63  H   0.83505
   64  H   0.77895

 **********************
 *                    *
 * JOB ENDED NORMALLY *
 *                    *
 **********************



 TOTAL JOB TIME:            34.64 SECONDS

 == MOPAC DONE ==
