 *******************************************************************************
 **                                                                           **
 **                              MOPAC v23.0.3                                **
 **                                                                           **
 *******************************************************************************
 **          Digital Object Identifier (DOI): 10.5281/zenodo.6511958          **
 **    Visit the DOI location for information on how to cite this program.    **
 *******************************************************************************

                              PM7 CALCULATION RESULTS

 *******************************************************************************
 *  CALCULATION DONE:                                Fri Jul 25 17:06:27 2025  *
 *  PM7        - The PM7 Hamiltonian to be used
 *  XYZ        - CARTESIAN COORDINATE SYSTEM TO BE USED
 *  T=         - A TIME OF 172800.0 SECONDS REQUESTED
 *  DUMP=N     - RESTART FILE WRITTEN EVERY 7200.0 SECONDS REQUESTED
 *******************************************************************************
PM7 XYZ

 Lipophilicity_1419 - geometry optimisation
   ATOM   CHEMICAL          X               Y               Z
  NUMBER   SYMBOL      (ANGSTROMS)     (ANGSTROMS)     (ANGSTROMS)

     1       C         -0.91232500  *   2.27364400  *  -3.29062200  *
     2       O         -0.94688600  *   1.37230600  *  -2.19136300  *
     3       C         -1.26345200  *   1.77971800  *  -0.89086600  *
     4       O         -1.55371800  *   2.98470000  *  -0.65532500  *
     5       C         -1.30570200  *   0.77823100  *   0.23552300  *
     6       C         -0.29355700  *  -0.39132300  *   0.03580100  *
     7       C         -0.58085600  *  -1.57711500  *   1.00274500  *
     8       C         -2.09960100  *  -1.82469600  *   1.17542800  *
     9       C         -2.77230800  *  -2.08653500  *  -0.18168100  *
    10       C         -3.20705000  *  -0.70057100  *  -0.65327700  *
    11       C         -2.74564800  *   0.24435000  *   0.47374300  *
    12       N         -2.67652100  *  -0.57761400  *   1.68633200  *
    13       C         -3.99824300  *  -0.78121200  *   2.30668400  *
    14       O          1.03243700  *   0.09964800  *   0.23705200  *
    15       C          2.18450400  *  -0.58708200  *  -0.16618300  *
    16       O          2.08584500  *  -1.68851600  *  -0.77441400  *
    17       C          3.51749700  *  -0.01181900  *   0.11607700  *
    18       C          3.63097400  *   1.22171300  *   0.78321800  *
    19       C          4.89018800  *   1.76788800  *   1.05092700  *
    20       C          6.04644900  *   1.09073200  *   0.65687500  *
    21       C          5.94615300  *  -0.13451300  *  -0.00604100  *
    22       C          4.68961500  *  -0.68551500  *  -0.27650400  *
    23       H         -0.15575100  *   3.06603200  *  -3.10857100  *
    24       H         -1.91231700  *   2.73454300  *  -3.43552400  *
    25       H         -0.63630800  *   1.71691600  *  -4.20945500  *
    26       H         -1.00362000  *   1.31854400  *   1.16210700  *
    27       H         -0.38124900  *  -0.77169400  *  -1.00613100  *
    28       H         -0.14479100  *  -1.34996000  *   2.00037400  *
    29       H         -0.09161600  *  -2.50103200  *   0.62589200  *
    30       H         -2.25760100  *  -2.67489300  *   1.87695100  *
    31       H         -3.66125700  *  -2.74025500  *  -0.04500200  *
    32       H         -2.08624200  *  -2.57295800  *  -0.90930400  *
    33       H         -2.76429500  *  -0.44892700  *  -1.63968100  *
    34       H         -4.31400600  *  -0.66094000  *  -0.74928700  *
    35       H         -3.44916200  *   1.09956800  *   0.59766900  *
    36       H         -4.72624300  *  -1.24512600  *   1.60717700  *
    37       H         -4.40456600  *   0.19346300  *   2.65100100  *
    38       H         -3.89624300  *  -1.43281600  *   3.20036300  *
    39       H          2.74896400  *   1.76523200  *   1.09807300  *
    40       H          4.96924200  *   2.71739600  *   1.56450400  *
    41       H          7.01998100  *   1.51539300  *   0.86515500  *
    42       H          6.84294500  *  -0.65834400  *  -0.31090800  *
    43       H          4.63634100  *  -1.63655800  *  -0.79148500  *



          CARTESIAN COORDINATES 

    NO.       ATOM           X           Y           Z

     1         C         -0.9123      2.2736     -3.2906
     2         O         -0.9469      1.3723     -2.1914
     3         C         -1.2635      1.7797     -0.8909
     4         O         -1.5537      2.9847     -0.6553
     5         C         -1.3057      0.7782      0.2355
     6         C         -0.2936     -0.3913      0.0358
     7         C         -0.5809     -1.5771      1.0027
     8         C         -2.0996     -1.8247      1.1754
     9         C         -2.7723     -2.0865     -0.1817
    10         C         -3.2071     -0.7006     -0.6533
    11         C         -2.7456      0.2444      0.4737
    12         N         -2.6765     -0.5776      1.6863
    13         C         -3.9982     -0.7812      2.3067
    14         O          1.0324      0.0996      0.2371
    15         C          2.1845     -0.5871     -0.1662
    16         O          2.0858     -1.6885     -0.7744
    17         C          3.5175     -0.0118      0.1161
    18         C          3.6310      1.2217      0.7832
    19         C          4.8902      1.7679      1.0509
    20         C          6.0464      1.0907      0.6569
    21         C          5.9462     -0.1345     -0.0060
    22         C          4.6896     -0.6855     -0.2765
    23         H         -0.1558      3.0660     -3.1086
    24         H         -1.9123      2.7345     -3.4355
    25         H         -0.6363      1.7169     -4.2095
    26         H         -1.0036      1.3185      1.1621
    27         H         -0.3812     -0.7717     -1.0061
    28         H         -0.1448     -1.3500      2.0004
    29         H         -0.0916     -2.5010      0.6259
    30         H         -2.2576     -2.6749      1.8770
    31         H         -3.6613     -2.7403     -0.0450
    32         H         -2.0862     -2.5730     -0.9093
    33         H         -2.7643     -0.4489     -1.6397
    34         H         -4.3140     -0.6609     -0.7493
    35         H         -3.4492      1.0996      0.5977
    36         H         -4.7262     -1.2451      1.6072
    37         H         -4.4046      0.1935      2.6510
    38         H         -3.8962     -1.4328      3.2004
    39         H          2.7490      1.7652      1.0981
    40         H          4.9692      2.7174      1.5645
    41         H          7.0200      1.5154      0.8652
    42         H          6.8429     -0.6583     -0.3109
    43         H          4.6363     -1.6366     -0.7915

 General Reference for PM7:
 "Optimization of Parameters for Semiempirical Methods VI: More Modifications to the 
 NDDO Approximations and Re-optimization of Parameters", J. J. P. Stewart, J. Mol. Mod., 1:32, 19 (2013)
 https://link.springer.com/article/10.1007/s00894-012-1667-x

           Empirical Formula: C17 H21 N O4  =    43 atoms



      MOLECULAR POINT GROUP   :   C1  


      RHF CALCULATION, NO. OF DOUBLY OCCUPIED LEVELS = 59


          Geometry optimization using L-BFGS
 CYCLE:     1 TIME:   0.043 TIME LEFT:  2.00D  GRAD.:   228.391 HEAT: -125.9542
 CYCLE:     2 TIME:   0.027 TIME LEFT:  2.00D  GRAD.:   222.601 HEAT: -126.4690
 CYCLE:     3 TIME:   0.027 TIME LEFT:  2.00D  GRAD.:    73.688 HEAT: -136.6766
 CYCLE:     4 TIME:   0.027 TIME LEFT:  2.00D  GRAD.:   222.720 HEAT: -126.4703
 CYCLE:     5 TIME:   0.027 TIME LEFT:  2.00D  GRAD.:    73.777 HEAT: -136.6758
 CYCLE:     6 TIME:   0.023 TIME LEFT:  2.00D  GRAD.:    43.693 HEAT: -137.6637
 CYCLE:     7 TIME:   0.027 TIME LEFT:  2.00D  GRAD.:    43.595 HEAT: -139.0438
 CYCLE:     8 TIME:   0.027 TIME LEFT:  2.00D  GRAD.:    50.065 HEAT: -140.3446
 CYCLE:     9 TIME:   0.023 TIME LEFT:  2.00D  GRAD.:    52.692 HEAT: -142.7484
 CYCLE:    10 TIME:   0.031 TIME LEFT:  2.00D  GRAD.:   118.267 HEAT: -141.6436
 CYCLE:    11 TIME:   0.027 TIME LEFT:  2.00D  GRAD.:    29.790 HEAT: -144.6369
 CYCLE:    12 TIME:   0.023 TIME LEFT:  2.00D  GRAD.:    18.834 HEAT: -145.0670
 CYCLE:    13 TIME:   0.027 TIME LEFT:  2.00D  GRAD.:    26.360 HEAT: -145.5817
 CYCLE:    14 TIME:   0.023 TIME LEFT:  2.00D  GRAD.:    31.421 HEAT: -145.9994
 CYCLE:    15 TIME:   0.027 TIME LEFT:  2.00D  GRAD.:    18.657 HEAT: -146.4383
 CYCLE:    16 TIME:   0.023 TIME LEFT:  2.00D  GRAD.:    16.991 HEAT: -146.7985
 CYCLE:    17 TIME:   0.023 TIME LEFT:  2.00D  GRAD.:    20.699 HEAT: -147.0452
 CYCLE:    18 TIME:   0.023 TIME LEFT:  2.00D  GRAD.:    13.764 HEAT: -147.2548
 CYCLE:    19 TIME:   0.023 TIME LEFT:  2.00D  GRAD.:     9.541 HEAT: -147.4267
 CYCLE:    20 TIME:   0.027 TIME LEFT:  2.00D  GRAD.:    16.566 HEAT: -147.5106
 CYCLE:    21 TIME:   0.023 TIME LEFT:  2.00D  GRAD.:     9.257 HEAT: -147.5970
 CYCLE:    22 TIME:   0.023 TIME LEFT:  2.00D  GRAD.:     8.080 HEAT: -147.6700
 CYCLE:    23 TIME:   0.027 TIME LEFT:  2.00D  GRAD.:    10.015 HEAT: -147.7572
 CYCLE:    24 TIME:   0.023 TIME LEFT:  2.00D  GRAD.:    16.760 HEAT: -147.8233
 CYCLE:    25 TIME:   0.027 TIME LEFT:  2.00D  GRAD.:     9.702 HEAT: -147.9102
 CYCLE:    26 TIME:   0.023 TIME LEFT:  2.00D  GRAD.:     8.000 HEAT: -147.9711
 CYCLE:    27 TIME:   0.023 TIME LEFT:  2.00D  GRAD.:     8.470 HEAT: -148.0392
 CYCLE:    28 TIME:   0.023 TIME LEFT:  2.00D  GRAD.:    22.467 HEAT: -148.0536
 CYCLE:    29 TIME:   0.023 TIME LEFT:  2.00D  GRAD.:     7.519 HEAT: -148.1282
 CYCLE:    30 TIME:   0.027 TIME LEFT:  2.00D  GRAD.:     4.874 HEAT: -148.1515
 CYCLE:    31 TIME:   0.023 TIME LEFT:  2.00D  GRAD.:     5.727 HEAT: -148.1773
 CYCLE:    32 TIME:   0.023 TIME LEFT:  2.00D  GRAD.:     6.407 HEAT: -148.2133
 CYCLE:    33 TIME:   0.027 TIME LEFT:  2.00D  GRAD.:     9.433 HEAT: -148.2450
 CYCLE:    34 TIME:   0.023 TIME LEFT:  2.00D  GRAD.:     5.363 HEAT: -148.2781
 CYCLE:    35 TIME:   0.023 TIME LEFT:  2.00D  GRAD.:     4.553 HEAT: -148.2940
 CYCLE:    36 TIME:   0.027 TIME LEFT:  2.00D  GRAD.:     5.028 HEAT: -148.3251
 CYCLE:    37 TIME:   0.023 TIME LEFT:  2.00D  GRAD.:     8.721 HEAT: -148.3387
 CYCLE:    38 TIME:   0.023 TIME LEFT:  2.00D  GRAD.:     3.711 HEAT: -148.3589
 CYCLE:    39 TIME:   0.023 TIME LEFT:  2.00D  GRAD.:     3.230 HEAT: -148.3687
 CYCLE:    40 TIME:   0.027 TIME LEFT:  2.00D  GRAD.:     3.995 HEAT: -148.3820
 CYCLE:    41 TIME:   0.023 TIME LEFT:  2.00D  GRAD.:    11.223 HEAT: -148.3847
 CYCLE:    42 TIME:   0.023 TIME LEFT:  2.00D  GRAD.:     3.440 HEAT: -148.4035
 CYCLE:    43 TIME:   0.027 TIME LEFT:  2.00D  GRAD.:     2.392 HEAT: -148.4093
 CYCLE:    44 TIME:   0.023 TIME LEFT:  2.00D  GRAD.:     2.711 HEAT: -148.4156
 CYCLE:    45 TIME:   0.023 TIME LEFT:  2.00D  GRAD.:     3.272 HEAT: -148.4261
 CYCLE:    46 TIME:   0.027 TIME LEFT:  2.00D  GRAD.:    11.592 HEAT: -148.4169
 CYCLE:    47 TIME:   0.023 TIME LEFT:  2.00D  GRAD.:     2.303 HEAT: -148.4406
 CYCLE:    48 TIME:   0.023 TIME LEFT:  2.00D  GRAD.:     1.859 HEAT: -148.4435
 CYCLE:    49 TIME:   0.023 TIME LEFT:  2.00D  GRAD.:     3.114 HEAT: -148.4508
 CYCLE:    50 TIME:   0.027 TIME LEFT:  2.00D  GRAD.:     3.662 HEAT: -148.4568
 CYCLE:    51 TIME:   0.023 TIME LEFT:  2.00D  GRAD.:     2.384 HEAT: -148.4627
 CYCLE:    52 TIME:   0.023 TIME LEFT:  2.00D  GRAD.:     2.453 HEAT: -148.4708
 CYCLE:    53 TIME:   0.027 TIME LEFT:  2.00D  GRAD.:     3.844 HEAT: -148.4778
 CYCLE:    54 TIME:   0.023 TIME LEFT:  2.00D  GRAD.:     2.572 HEAT: -148.4858
 CYCLE:    55 TIME:   0.023 TIME LEFT:  2.00D  GRAD.:     2.322 HEAT: -148.4922
 CYCLE:    56 TIME:   0.023 TIME LEFT:  2.00D  GRAD.:     2.992 HEAT: -148.4997
 CYCLE:    57 TIME:   0.027 TIME LEFT:  2.00D  GRAD.:     5.372 HEAT: -148.5084
 CYCLE:    58 TIME:   0.023 TIME LEFT:  2.00D  GRAD.:     3.565 HEAT: -148.5178
 CYCLE:    59 TIME:   0.023 TIME LEFT:  2.00D  GRAD.:     3.166 HEAT: -148.5315
 CYCLE:    60 TIME:   0.027 TIME LEFT:  2.00D  GRAD.:     4.079 HEAT: -148.5400
 CYCLE:    61 TIME:   0.023 TIME LEFT:  2.00D  GRAD.:     3.940 HEAT: -148.5511
 CYCLE:    62 TIME:   0.027 TIME LEFT:  2.00D  GRAD.:     2.976 HEAT: -148.5613
 CYCLE:    63 TIME:   0.023 TIME LEFT:  2.00D  GRAD.:     3.038 HEAT: -148.5661
 CYCLE:    64 TIME:   0.023 TIME LEFT:  2.00D  GRAD.:     2.634 HEAT: -148.5719
 CYCLE:    65 TIME:   0.027 TIME LEFT:  2.00D  GRAD.:     5.175 HEAT: -148.5788
 CYCLE:    66 TIME:   0.023 TIME LEFT:  2.00D  GRAD.:     3.405 HEAT: -148.5864
 CYCLE:    67 TIME:   0.023 TIME LEFT:  2.00D  GRAD.:     2.628 HEAT: -148.5893
 CYCLE:    68 TIME:   0.027 TIME LEFT:  2.00D  GRAD.:     2.416 HEAT: -148.5944
 CYCLE:    69 TIME:   0.027 TIME LEFT:  2.00D  GRAD.:     2.444 HEAT: -148.5984
 CYCLE:    70 TIME:   0.027 TIME LEFT:  2.00D  GRAD.:     2.028 HEAT: -148.6023
 CYCLE:    71 TIME:   0.023 TIME LEFT:  2.00D  GRAD.:     4.048 HEAT: -148.6060
 CYCLE:    72 TIME:   0.023 TIME LEFT:  2.00D  GRAD.:     2.097 HEAT: -148.6119
 CYCLE:    73 TIME:   0.023 TIME LEFT:  2.00D  GRAD.:     2.193 HEAT: -148.6166
 CYCLE:    74 TIME:   0.027 TIME LEFT:  2.00D  GRAD.:     2.301 HEAT: -148.6213
 CYCLE:    75 TIME:   0.023 TIME LEFT:  2.00D  GRAD.:     7.777 HEAT: -148.6175
 CYCLE:    76 TIME:   0.023 TIME LEFT:  2.00D  GRAD.:     1.899 HEAT: -148.6278
 CYCLE:    77 TIME:   0.027 TIME LEFT:  2.00D  GRAD.:     1.278 HEAT: -148.6295
 CYCLE:    78 TIME:   0.031 TIME LEFT:  2.00D  GRAD.:     1.646 HEAT: -148.6324
 CYCLE:    79 TIME:   0.023 TIME LEFT:  2.00D  GRAD.:     4.206 HEAT: -148.6343
 CYCLE:    80 TIME:   0.023 TIME LEFT:  2.00D  GRAD.:     1.923 HEAT: -148.6375
 CYCLE:    81 TIME:   0.023 TIME LEFT:  2.00D  GRAD.:     1.111 HEAT: -148.6392
 CYCLE:    82 TIME:   0.027 TIME LEFT:  2.00D  GRAD.:     1.244 HEAT: -148.6400
 CYCLE:    83 TIME:   0.023 TIME LEFT:  2.00D  GRAD.:     1.234 HEAT: -148.6416
 CYCLE:    84 TIME:   0.027 TIME LEFT:  2.00D  GRAD.:     2.243 HEAT: -148.6435
 CYCLE:    85 TIME:   0.023 TIME LEFT:  2.00D  GRAD.:     1.796 HEAT: -148.6448
 CYCLE:    86 TIME:   0.027 TIME LEFT:  2.00D  GRAD.:     1.129 HEAT: -148.6461
 CYCLE:    87 TIME:   0.023 TIME LEFT:  2.00D  GRAD.:     0.930 HEAT: -148.6474

 -------------------------------------------------------------------------------
 PM7 XYZ

 Lipophilicity_1419 - geometry optimisation


     HERBERTS TEST WAS SATISFIED IN BFGS                      
     SCF FIELD WAS ACHIEVED                                   


                              PM7 CALCULATION
                                                       MOPAC v23.0.3 Linux
                                                       Fri Jul 25 17:06:29 2025




          FINAL HEAT OF FORMATION =       -148.64741 KCAL/MOL =    -621.94076 KJ/MOL


          COSMO AREA              =        317.63 SQUARE ANGSTROMS
          COSMO VOLUME            =        368.38 CUBIC ANGSTROMS

          GRADIENT NORM           =          0.92994          =       0.14181 PER ATOM
          IONIZATION POTENTIAL    =          9.282699 EV
          HOMO LUMO ENERGIES (EV) =         -9.283 -0.530
          NO. OF FILLED LEVELS    =         59
          MOLECULAR WEIGHT        =        303.3572         POINT GROUP:  C1  

          MOLECULAR DIMENSIONS (Angstroms)

            Atom       Atom       Distance
            H    41    H    36    11.83018
            H    25    H    38     7.20924
            H    43    O     4     5.53601


          SCF CALCULATIONS        =         88

          WALL-CLOCK TIME         =      2.230 SECONDS
          COMPUTATION TIME        =     44.523 SECONDS




   ATOM   CHEMICAL          X               Y               Z
  NUMBER   SYMBOL      (ANGSTROMS)     (ANGSTROMS)     (ANGSTROMS)

     1       C         -0.86356297  *   2.11494468  *  -3.13911864  *
     2       O         -0.95567736  *   1.22658298  *  -2.03087620  *
     3       C         -1.10946221  *   1.80257338  *  -0.81052467  *
     4       O         -1.19979162  *   2.99419807  *  -0.66963538  *
     5       C         -1.17653147  *   0.76266245  *   0.27030376  *
     6       C         -0.27368916  *  -0.45458074  *  -0.00855749  *
     7       C         -0.53422034  *  -1.60452822  *   0.97468836  *
     8       C         -2.05029214  *  -1.83887723  *   1.13692301  *
     9       C         -2.72712561  *  -2.03941897  *  -0.25186791  *
    10       C         -3.12685137  *  -0.61611811  *  -0.69214430  *
    11       C         -2.64720985  *   0.29976782  *   0.47008026  *
    12       N         -2.59821454  *  -0.56284065  *   1.68483441  *
    13       C         -3.91461368  *  -0.72544675  *   2.32485256  *
    14       O          1.04452267  *   0.05853522  *   0.23875392  *
    15       C          2.08445925  *  -0.63663474  *  -0.28612603  *
    16       O          1.92577778  *  -1.64656381  *  -0.92617887  *
    17       C          3.36736051  *   0.00467206  *   0.05253171  *
    18       C          3.41806799  *   1.22641764  *   0.72524390  *
    19       C          4.65466658  *   1.78794765  *   1.03535842  *
    20       C          5.82982354  *   1.12979484  *   0.67452436  *
    21       C          5.77542075  *  -0.08896881  *  -0.00153320  *
    22       C          4.54291198  *  -0.65483751  *  -0.31550687  *
    23       H         -0.08420077  *   2.86590016  *  -2.96907566  *
    24       H         -1.83029777  *   2.60049083  *  -3.30440224  *
    25       H         -0.59881694  *   1.44815346  *  -3.96786486  *
    26       H         -0.83376206  *   1.24214030  *   1.23350025  *
    27       H         -0.33462645  *  -0.79459440  *  -1.06728681  *
    28       H         -0.09247040  *  -1.35739917  *   1.96221676  *
    29       H         -0.02899056  *  -2.52387863  *   0.62674006  *
    30       H         -2.24186828  *  -2.68670987  *   1.82394348  *
    31       H         -3.60324822  *  -2.69838788  *  -0.17255577  *
    32       H         -2.04437915  *  -2.51781008  *  -0.96944086  *
    33       H         -2.67081998  *  -0.33660559  *  -1.65470773  *
    34       H         -4.21441900  *  -0.52864694  *  -0.83166242  *
    35       H         -3.30832972  *   1.17848519  *   0.61804930  *
    36       H         -4.69057227  *  -1.16120231  *   1.67839475  *
    37       H         -4.26471816  *   0.25843219  *   2.68019733  *
    38       H         -3.79800865  *  -1.36808863  *   3.21376384  *
    39       H          2.49468438  *   1.73801214  *   1.00806647  *
    40       H          4.70209659  *   2.74034638  *   1.56055199  *
    41       H          6.79523628  *   1.56959949  *   0.92204097  *
    42       H          6.69489130  *  -0.59818387  *  -0.28325535  *
    43       H          4.48684819  *  -1.60933583  *  -0.84518992  *

                             CARTESIAN COORDINATES

   1    C       -0.863562973     2.114944681    -3.139118637
   2    O       -0.955677362     1.226582980    -2.030876204
   3    C       -1.109462206     1.802573380    -0.810524666
   4    O       -1.199791622     2.994198067    -0.669635383
   5    C       -1.176531473     0.762662447     0.270303757
   6    C       -0.273689165    -0.454580739    -0.008557489
   7    C       -0.534220336    -1.604528221     0.974688358
   8    C       -2.050292144    -1.838877230     1.136923010
   9    C       -2.727125605    -2.039418966    -0.251867907
  10    C       -3.126851375    -0.616118107    -0.692144298
  11    C       -2.647209847     0.299767816     0.470080262
  12    N       -2.598214536    -0.562840651     1.684834406
  13    C       -3.914613677    -0.725446750     2.324852564
  14    O        1.044522672     0.058535219     0.238753921
  15    C        2.084459254    -0.636634738    -0.286126035
  16    O        1.925777779    -1.646563806    -0.926178869
  17    C        3.367360507     0.004672056     0.052531710
  18    C        3.418067994     1.226417641     0.725243902
  19    C        4.654666576     1.787947649     1.035358416
  20    C        5.829823544     1.129794840     0.674524355
  21    C        5.775420749    -0.088968809    -0.001533201
  22    C        4.542911985    -0.654837511    -0.315506870
  23    H       -0.084200775     2.865900165    -2.969075662
  24    H       -1.830297774     2.600490826    -3.304402244
  25    H       -0.598816936     1.448153462    -3.967864860
  26    H       -0.833762063     1.242140304     1.233500245
  27    H       -0.334626450    -0.794594396    -1.067286813
  28    H       -0.092470404    -1.357399174     1.962216760
  29    H       -0.028990563    -2.523878631     0.626740061
  30    H       -2.241868279    -2.686709872     1.823943482
  31    H       -3.603248225    -2.698387882    -0.172555766
  32    H       -2.044379155    -2.517810082    -0.969440859
  33    H       -2.670819977    -0.336605587    -1.654707727
  34    H       -4.214418998    -0.528646939    -0.831662420
  35    H       -3.308329716     1.178485189     0.618049300
  36    H       -4.690572269    -1.161202307     1.678394749
  37    H       -4.264718161     0.258432189     2.680197334
  38    H       -3.798008651    -1.368088625     3.213763841
  39    H        2.494684381     1.738012140     1.008066465
  40    H        4.702096592     2.740346381     1.560551991
  41    H        6.795236283     1.569599487     0.922040966
  42    H        6.694891296    -0.598183866    -0.283255354
  43    H        4.486848192    -1.609335827    -0.845189919


           Empirical Formula: C17 H21 N O4  =    43 atoms



      MOLECULAR POINT GROUP   :   C1  


                  EIGENVALUES  
 -35.79540 -31.44069 -31.31385 -30.78727 -30.08634 -29.88545 -28.97159 -27.18823
 -26.95946 -26.25688 -26.10928 -24.85068 -23.98841 -22.91244 -22.71246 -21.55814
 -21.15472 -20.47457 -19.96385 -19.51274 -18.84770 -18.19393 -17.65241 -17.13798
 -16.62220 -16.37996 -16.07680 -15.99429 -15.69415 -15.54593 -15.12632 -15.11343
 -14.96610 -14.66138 -14.52221 -14.13869 -14.10383 -13.91035 -13.81623 -13.67236
 -13.56401 -13.43095 -13.03188 -12.80715 -12.67974 -12.51836 -12.23244 -12.17710
 -11.97512 -11.89347 -11.48993 -11.40869 -11.13244 -11.10158 -10.76356 -10.54930
 -10.15304 -10.08484  -9.28270  -0.52951   0.00790   1.06137   1.37843   1.56041
   1.66357   2.42957   2.59145   3.12756   3.27454   3.40111   3.47125   3.70622
   3.78879   3.88996   4.06934   4.17378   4.26074   4.28863   4.37284   4.52630
   4.69092   4.75698   4.88101   4.98578   5.05114   5.21834   5.30711   5.39665
   5.45385   5.51515   5.54151   5.58268   5.61728   5.64015   5.66422   5.67878
   5.75776   5.86348   5.88086   5.94297   5.97367   6.00079   6.01603   6.10468
   6.13904   6.32006   6.44091   6.46494   6.59910


              NET ATOMIC CHARGES AND DIPOLE CONTRIBUTIONS

  ATOM NO.   TYPE          CHARGE      No. of ELECS.   s-Pop       p-Pop       
    1          C          -0.167669        4.1677     1.08568     3.08199
    2          O          -0.412572        6.4126     1.86587     4.54670
    3          C           0.593307        3.4067     1.12596     2.28073
    4          O          -0.501684        6.5017     1.87658     4.62511
    5          C          -0.248500        4.2485     1.08584     3.16266
    6          C           0.170832        3.8292     1.09762     2.73155
    7          C          -0.338204        4.3382     1.07371     3.26449
    8          C           0.055274        3.9447     1.07997     2.86476
    9          C          -0.315634        4.3156     1.07343     3.24221
   10          C          -0.321351        4.3214     1.07403     3.24732
   11          C           0.054991        3.9450     1.08230     2.86271
   12          N          -0.414548        5.4145     1.70205     3.71250
   13          C          -0.274726        4.2747     1.06058     3.21415
   14          O          -0.454742        6.4547     1.86567     4.58907
   15          C           0.617190        3.3828     1.10836     2.27445
   16          O          -0.509654        6.5097     1.87766     4.63200
   17          C          -0.146900        4.1469     1.06735     3.07955
   18          C          -0.070277        4.0703     1.09037     2.97991
   19          C          -0.179995        4.1800     1.08284     3.09715
   20          C          -0.100721        4.1007     1.08882     3.01191
   21          C          -0.180396        4.1804     1.08201     3.09839
   22          C          -0.079975        4.0800     1.09125     2.98872
   23          H           0.144234        0.8558     0.85577
   24          H           0.135460        0.8645     0.86454
   25          H           0.146272        0.8537     0.85373
   26          H           0.210174        0.7898     0.78983
   27          H           0.159712        0.8403     0.84029
   28          H           0.172448        0.8276     0.82755
   29          H           0.161757        0.8382     0.83824
   30          H           0.133851        0.8661     0.86615
   31          H           0.137643        0.8624     0.86236
   32          H           0.152295        0.8477     0.84770
   33          H           0.161875        0.8381     0.83812
   34          H           0.140850        0.8591     0.85915
   35          H           0.144919        0.8551     0.85508
   36          H           0.123269        0.8767     0.87673
   37          H           0.148510        0.8515     0.85149
   38          H           0.146160        0.8538     0.85384
   39          H           0.174690        0.8253     0.82531
   40          H           0.156600        0.8434     0.84340
   41          H           0.148392        0.8516     0.85161
   42          H           0.155478        0.8445     0.84452
   43          H           0.171363        0.8286     0.82864
 DIPOLE           X         Y         Z       TOTAL
 POINT-CHG.    -0.254    -0.837     0.320     0.932
 HYBRID        -0.488    -0.138    -0.538     0.739
 SUM           -0.742    -0.975    -0.218     1.245


          ATOMIC ORBITAL ELECTRON POPULATIONS

     Atom    s        px        py        pz   
    1  C   1.08568   1.15257   1.03408   0.89534
    2  O   1.86587   1.83925   1.44245   1.26501
    3  C   1.12596   0.66385   0.82320   0.79368
    4  O   1.87658   1.50941   1.27312   1.84257
    5  C   1.08584   1.04183   1.03067   1.09015
    6  C   1.09762   0.73240   0.92982   1.06934
    7  C   1.07371   1.03719   1.09554   1.13176
    8  C   1.07997   0.95425   0.93826   0.97225
    9  C   1.07343   1.13716   1.03943   1.06561
   10  C   1.07403   1.14686   1.00776   1.09270
   11  C   1.08230   0.96850   1.00525   0.88897
   12  N   1.70205   1.26608   1.16768   1.27875
   13  C   1.06058   0.94833   1.16665   1.09917
   14  O   1.86567   1.27239   1.58545   1.73122
   15  C   1.10836   0.81621   0.75667   0.70158
   16  O   1.87766   1.84951   1.33568   1.44681
   17  C   1.06735   0.97781   1.02405   1.07768
   18  C   1.09037   1.05717   0.98088   0.94186
   19  C   1.08284   0.98745   1.07024   1.03945
   20  C   1.08882   1.05824   0.99153   0.96213
   21  C   1.08201   1.05585   1.01770   1.02484
   22  C   1.09125   0.97234   1.04995   0.96643
   23  H   0.85577
   24  H   0.86454
   25  H   0.85373
   26  H   0.78983
   27  H   0.84029
   28  H   0.82755
   29  H   0.83824
   30  H   0.86615
   31  H   0.86236
   32  H   0.84770
   33  H   0.83812
   34  H   0.85915
   35  H   0.85508
   36  H   0.87673
   37  H   0.85149
   38  H   0.85384
   39  H   0.82531
   40  H   0.84340
   41  H   0.85161
   42  H   0.84452
   43  H   0.82864

 **********************
 *                    *
 * JOB ENDED NORMALLY *
 *                    *
 **********************



 TOTAL JOB TIME:             2.23 SECONDS

 == MOPAC DONE ==
