 *******************************************************************************
 **                                                                           **
 **                              MOPAC v23.0.3                                **
 **                                                                           **
 *******************************************************************************
 **          Digital Object Identifier (DOI): 10.5281/zenodo.6511958          **
 **    Visit the DOI location for information on how to cite this program.    **
 *******************************************************************************

                              PM7 CALCULATION RESULTS

 *******************************************************************************
 *  CALCULATION DONE:                                Fri Jul 25 20:02:56 2025  *
 *  PM7        - The PM7 Hamiltonian to be used
 *  XYZ        - CARTESIAN COORDINATE SYSTEM TO BE USED
 *  T=         - A TIME OF 172800.0 SECONDS REQUESTED
 *  DUMP=N     - RESTART FILE WRITTEN EVERY 7200.0 SECONDS REQUESTED
 *******************************************************************************
PM7 XYZ

 Lipophilicity_532 - geometry optimisation
   ATOM   CHEMICAL          X               Y               Z
  NUMBER   SYMBOL      (ANGSTROMS)     (ANGSTROMS)     (ANGSTROMS)

     1       C         -1.84194700  *  -3.60319500  *  -3.04502900  *
     2       O         -0.53701300  *  -3.38666500  *  -2.52921600  *
     3       C         -0.16507600  *  -2.34744500  *  -1.66411600  *
     4       C          1.08499300  *  -2.16084100  *  -1.27527400  *
     5       C          1.10476500  *  -0.97348700  *  -0.41877100  *
     6       N         -0.07357000  *  -0.45911500  *  -0.28027500  *
     7       C         -0.95943800  *  -1.27234500  *  -1.04413200  *
     8       C         -2.28652100  *  -1.08850800  *  -1.06706700  *
     9       C         -2.95029000  *   0.03282100  *  -0.37511300  *
    10       N         -4.06194000  *  -0.12999800  *   0.36721100  *
    11       C         -4.41792900  *   1.08951900  *   0.81357000  *
    12       C         -5.64407000  *   1.35443900  *   1.62406700  *
    13       C         -3.55804800  *   2.05519800  *   0.32718800  *
    14       C         -2.62558500  *   1.38458100  *  -0.44195100  *
    15       C         -1.53127300  *   2.03696600  *  -1.22874400  *
    16       C          2.30006900  *  -0.40111400  *   0.21897900  *
    17       C          3.59383200  *  -0.91068700  *   0.11562100  *
    18       C          4.37201100  *  -0.05576900  *   0.86526800  *
    19       C          5.74111900  *  -0.06765600  *   1.12381500  *
    20       C          6.26324500  *   0.95379500  *   1.93881100  *
    21       C          5.41387100  *   1.95079500  *   2.46919300  *
    22       C          4.03483100  *   1.93516600  *   2.18933200  *
    23       C          3.54698800  *   0.91066000  *   1.37920000  *
    24       N          2.27659200  *   0.71164100  *   0.99179600  *
    25       H         -1.80057400  *  -4.42609300  *  -3.78757300  *
    26       H         -2.52731100  *  -3.91387100  *  -2.22950700  *
    27       H         -2.20972700  *  -2.69049600  *  -3.55942000  *
    28       H          1.93016000  *  -2.77259500  *  -1.56193200  *
    29       H         -2.93606300  *  -1.81522700  *  -1.52019900  *
    30       H         -4.55626300  *  -1.03045000  *   0.55786500  *
    31       H         -5.87036400  *   0.47826400  *   2.26714200  *
    32       H         -6.50221700  *   1.54087300  *   0.94561700  *
    33       H         -5.48975700  *   2.24278000  *   2.27219000  *
    34       H         -3.62431100  *   3.12411500  *   0.48424600  *
    35       H         -1.25277600  *   1.41313800  *  -2.10339000  *
    36       H         -0.64382600  *   2.18766700  *  -0.57989300  *
    37       H         -1.87246500  *   3.02533400  *  -1.60222700  *
    38       H          3.92232900  *  -1.78447100  *  -0.43155500  *
    39       H          6.38304100  *  -0.83593700  *   0.71231700  *
    40       H          7.32225800  *   0.97573500  *   2.16054500  *
    41       H          5.82632600  *   2.73169500  *   3.09468200  *
    42       H          3.37580200  *   2.69423700  *   2.59048500  *
    43       H          1.44612200  *   1.29654600  *   1.23624600  *



          CARTESIAN COORDINATES 

    NO.       ATOM           X           Y           Z

     1         C         -1.8419     -3.6032     -3.0450
     2         O         -0.5370     -3.3867     -2.5292
     3         C         -0.1651     -2.3474     -1.6641
     4         C          1.0850     -2.1608     -1.2753
     5         C          1.1048     -0.9735     -0.4188
     6         N         -0.0736     -0.4591     -0.2803
     7         C         -0.9594     -1.2723     -1.0441
     8         C         -2.2865     -1.0885     -1.0671
     9         C         -2.9503      0.0328     -0.3751
    10         N         -4.0619     -0.1300      0.3672
    11         C         -4.4179      1.0895      0.8136
    12         C         -5.6441      1.3544      1.6241
    13         C         -3.5580      2.0552      0.3272
    14         C         -2.6256      1.3846     -0.4420
    15         C         -1.5313      2.0370     -1.2287
    16         C          2.3001     -0.4011      0.2190
    17         C          3.5938     -0.9107      0.1156
    18         C          4.3720     -0.0558      0.8653
    19         C          5.7411     -0.0677      1.1238
    20         C          6.2632      0.9538      1.9388
    21         C          5.4139      1.9508      2.4692
    22         C          4.0348      1.9352      2.1893
    23         C          3.5470      0.9107      1.3792
    24         N          2.2766      0.7116      0.9918
    25         H         -1.8006     -4.4261     -3.7876
    26         H         -2.5273     -3.9139     -2.2295
    27         H         -2.2097     -2.6905     -3.5594
    28         H          1.9302     -2.7726     -1.5619
    29         H         -2.9361     -1.8152     -1.5202
    30         H         -4.5563     -1.0305      0.5579
    31         H         -5.8704      0.4783      2.2671
    32         H         -6.5022      1.5409      0.9456
    33         H         -5.4898      2.2428      2.2722
    34         H         -3.6243      3.1241      0.4842
    35         H         -1.2528      1.4131     -2.1034
    36         H         -0.6438      2.1877     -0.5799
    37         H         -1.8725      3.0253     -1.6022
    38         H          3.9223     -1.7845     -0.4316
    39         H          6.3830     -0.8359      0.7123
    40         H          7.3223      0.9757      2.1605
    41         H          5.8263      2.7317      3.0947
    42         H          3.3758      2.6942      2.5905
    43         H          1.4461      1.2965      1.2362

 General Reference for PM7:
 "Optimization of Parameters for Semiempirical Methods VI: More Modifications to the 
 NDDO Approximations and Re-optimization of Parameters", J. J. P. Stewart, J. Mol. Mod., 1:32, 19 (2013)
 https://link.springer.com/article/10.1007/s00894-012-1667-x

           Empirical Formula: C20 H19 N3 O  =    43 atoms



      MOLECULAR POINT GROUP   :   C1  


      RHF CALCULATION, NO. OF DOUBLY OCCUPIED LEVELS = 60


          Geometry optimization using L-BFGS
 CYCLE:     1 TIME:   0.047 TIME LEFT:  2.00D  GRAD.:   344.289 HEAT:  110.3890
 CYCLE:     2 TIME:   0.023 TIME LEFT:  2.00D  GRAD.:   333.849 HEAT:  109.2218
 CYCLE:     3 TIME:   0.031 TIME LEFT:  2.00D  GRAD.:    57.985 HEAT:  88.46663
 CYCLE:     4 TIME:   0.031 TIME LEFT:  2.00D  GRAD.:   333.986 HEAT:  109.2154
 CYCLE:     5 TIME:   0.023 TIME LEFT:  2.00D  GRAD.:    57.978 HEAT:  88.46604
 CYCLE:     6 TIME:   0.031 TIME LEFT:  2.00D  GRAD.:    47.370 HEAT:  87.29365
 CYCLE:     7 TIME:   0.023 TIME LEFT:  2.00D  GRAD.:    48.138 HEAT:  84.86883
 CYCLE:     8 TIME:   0.031 TIME LEFT:  2.00D  GRAD.:    78.024 HEAT:  83.76650
 CYCLE:     9 TIME:   0.031 TIME LEFT:  2.00D  GRAD.:    32.895 HEAT:  82.57457
 CYCLE:    10 TIME:   0.023 TIME LEFT:  2.00D  GRAD.:    22.254 HEAT:  82.06543
 CYCLE:    11 TIME:   0.023 TIME LEFT:  2.00D  GRAD.:    23.727 HEAT:  81.71315
 CYCLE:    12 TIME:   0.031 TIME LEFT:  2.00D  GRAD.:    33.317 HEAT:  81.38185
 CYCLE:    13 TIME:   0.023 TIME LEFT:  2.00D  GRAD.:    12.338 HEAT:  81.14544
 CYCLE:    14 TIME:   0.023 TIME LEFT:  2.00D  GRAD.:     9.762 HEAT:  81.07473
 CYCLE:    15 TIME:   0.031 TIME LEFT:  2.00D  GRAD.:    10.711 HEAT:  80.97120
 CYCLE:    16 TIME:   0.023 TIME LEFT:  2.00D  GRAD.:    16.224 HEAT:  80.87292
 CYCLE:    17 TIME:   0.023 TIME LEFT:  2.00D  GRAD.:     8.720 HEAT:  80.78528
 CYCLE:    18 TIME:   0.031 TIME LEFT:  2.00D  GRAD.:     6.598 HEAT:  80.73579
 CYCLE:    19 TIME:   0.023 TIME LEFT:  2.00D  GRAD.:     8.668 HEAT:  80.67700
 CYCLE:    20 TIME:   0.023 TIME LEFT:  2.00D  GRAD.:    11.093 HEAT:  80.62761
 CYCLE:    21 TIME:   0.031 TIME LEFT:  2.00D  GRAD.:     6.702 HEAT:  80.57985
 CYCLE:    22 TIME:   0.023 TIME LEFT:  2.00D  GRAD.:     5.558 HEAT:  80.54793
 CYCLE:    23 TIME:   0.023 TIME LEFT:  2.00D  GRAD.:     5.365 HEAT:  80.53149
 CYCLE:    24 TIME:   0.031 TIME LEFT:  2.00D  GRAD.:     5.073 HEAT:  80.51219
 CYCLE:    25 TIME:   0.023 TIME LEFT:  2.00D  GRAD.:    11.842 HEAT:  80.47699
 CYCLE:    26 TIME:   0.023 TIME LEFT:  2.00D  GRAD.:     7.324 HEAT:  80.44235
 CYCLE:    27 TIME:   0.023 TIME LEFT:  2.00D  GRAD.:     5.483 HEAT:  80.42027
 CYCLE:    28 TIME:   0.031 TIME LEFT:  2.00D  GRAD.:     4.752 HEAT:  80.38605
 CYCLE:    29 TIME:   0.023 TIME LEFT:  2.00D  GRAD.:    10.310 HEAT:  80.35131
 CYCLE:    30 TIME:   0.031 TIME LEFT:  2.00D  GRAD.:     6.847 HEAT:  80.31430
 CYCLE:    31 TIME:   0.023 TIME LEFT:  2.00D  GRAD.:     5.111 HEAT:  80.27906
 CYCLE:    32 TIME:   0.023 TIME LEFT:  2.00D  GRAD.:     5.513 HEAT:  80.25501
 CYCLE:    33 TIME:   0.031 TIME LEFT:  2.00D  GRAD.:     5.878 HEAT:  80.23195
 CYCLE:    34 TIME:   0.023 TIME LEFT:  2.00D  GRAD.:     4.683 HEAT:  80.21135
 CYCLE:    35 TIME:   0.023 TIME LEFT:  2.00D  GRAD.:     3.779 HEAT:  80.19677
 CYCLE:    36 TIME:   0.023 TIME LEFT:  2.00D  GRAD.:     4.275 HEAT:  80.17919
 CYCLE:    37 TIME:   0.031 TIME LEFT:  2.00D  GRAD.:     6.529 HEAT:  80.16418
 CYCLE:    38 TIME:   0.023 TIME LEFT:  2.00D  GRAD.:     3.577 HEAT:  80.14966
 CYCLE:    39 TIME:   0.023 TIME LEFT:  2.00D  GRAD.:     2.863 HEAT:  80.14058
 CYCLE:    40 TIME:   0.031 TIME LEFT:  2.00D  GRAD.:     3.423 HEAT:  80.13144
 CYCLE:    41 TIME:   0.023 TIME LEFT:  2.00D  GRAD.:     5.335 HEAT:  80.12079
 CYCLE:    42 TIME:   0.023 TIME LEFT:  2.00D  GRAD.:     3.309 HEAT:  80.11013
 CYCLE:    43 TIME:   0.031 TIME LEFT:  2.00D  GRAD.:     2.721 HEAT:  80.10278
 CYCLE:    44 TIME:   0.023 TIME LEFT:  2.00D  GRAD.:     3.273 HEAT:  80.09566
 CYCLE:    45 TIME:   0.031 TIME LEFT:  2.00D  GRAD.:     4.684 HEAT:  80.08912
 CYCLE:    46 TIME:   0.023 TIME LEFT:  2.00D  GRAD.:     2.597 HEAT:  80.08219
 CYCLE:    47 TIME:   0.023 TIME LEFT:  2.00D  GRAD.:     2.574 HEAT:  80.07533
 CYCLE:    48 TIME:   0.031 TIME LEFT:  2.00D  GRAD.:     3.008 HEAT:  80.06955
 CYCLE:    49 TIME:   0.023 TIME LEFT:  2.00D  GRAD.:     4.389 HEAT:  80.05932
 CYCLE:    50 TIME:   0.023 TIME LEFT:  2.00D  GRAD.:     3.615 HEAT:  80.04832
 CYCLE:    51 TIME:   0.031 TIME LEFT:  2.00D  GRAD.:     4.531 HEAT:  80.04177
 CYCLE:    52 TIME:   0.023 TIME LEFT:  2.00D  GRAD.:     5.190 HEAT:  80.02723
 CYCLE:    53 TIME:   0.031 TIME LEFT:  2.00D  GRAD.:     3.776 HEAT:  80.01101
 CYCLE:    54 TIME:   0.023 TIME LEFT:  2.00D  GRAD.:     2.919 HEAT:  80.00325
 CYCLE:    55 TIME:   0.023 TIME LEFT:  2.00D  GRAD.:     2.644 HEAT:  79.98914
 CYCLE:    56 TIME:   0.031 TIME LEFT:  2.00D  GRAD.:     4.901 HEAT:  79.98147
 CYCLE:    57 TIME:   0.023 TIME LEFT:  2.00D  GRAD.:     3.317 HEAT:  79.97550
 CYCLE:    58 TIME:   0.031 TIME LEFT:  2.00D  GRAD.:     2.082 HEAT:  79.97086
 CYCLE:    59 TIME:   0.023 TIME LEFT:  2.00D  GRAD.:     2.964 HEAT:  79.96956
 CYCLE:    60 TIME:   0.039 TIME LEFT:  2.00D  GRAD.:     1.927 HEAT:  79.96244
 CYCLE:    61 TIME:   0.023 TIME LEFT:  2.00D  GRAD.:     2.207 HEAT:  79.96007
 CYCLE:    62 TIME:   0.031 TIME LEFT:  2.00D  GRAD.:     4.015 HEAT:  79.95783
 CYCLE:    63 TIME:   0.023 TIME LEFT:  2.00D  GRAD.:     2.118 HEAT:  79.95346
 CYCLE:    64 TIME:   0.023 TIME LEFT:  2.00D  GRAD.:     1.510 HEAT:  79.95049
 CYCLE:    65 TIME:   0.031 TIME LEFT:  2.00D  GRAD.:     1.813 HEAT:  79.94787
 CYCLE:    66 TIME:   0.031 TIME LEFT:  2.00D  GRAD.:     2.313 HEAT:  79.94374
 CYCLE:    67 TIME:   0.023 TIME LEFT:  2.00D  GRAD.:     4.265 HEAT:  79.94135
 CYCLE:    68 TIME:   0.023 TIME LEFT:  2.00D  GRAD.:     1.876 HEAT:  79.93718
 CYCLE:    69 TIME:   0.031 TIME LEFT:  2.00D  GRAD.:     1.297 HEAT:  79.93432
 CYCLE:    70 TIME:   0.023 TIME LEFT:  2.00D  GRAD.:     1.720 HEAT:  79.93196
 CYCLE:    71 TIME:   0.031 TIME LEFT:  2.00D  GRAD.:     3.705 HEAT:  79.92910
 CYCLE:    72 TIME:   0.023 TIME LEFT:  2.00D  GRAD.:     1.881 HEAT:  79.92521
 CYCLE:    73 TIME:   0.023 TIME LEFT:  2.00D  GRAD.:     1.456 HEAT:  79.92269
 CYCLE:    74 TIME:   0.023 TIME LEFT:  2.00D  GRAD.:     1.819 HEAT:  79.92000
 CYCLE:    75 TIME:   0.031 TIME LEFT:  2.00D  GRAD.:     3.145 HEAT:  79.91704
 CYCLE:    76 TIME:   0.023 TIME LEFT:  2.00D  GRAD.:     1.551 HEAT:  79.91386
 CYCLE:    77 TIME:   0.031 TIME LEFT:  2.00D  GRAD.:     1.454 HEAT:  79.91206
 CYCLE:    78 TIME:   0.023 TIME LEFT:  2.00D  GRAD.:     1.596 HEAT:  79.91003
 CYCLE:    79 TIME:   0.031 TIME LEFT:  2.00D  GRAD.:     2.190 HEAT:  79.90690
 CYCLE:    80 TIME:   0.031 TIME LEFT:  2.00D  GRAD.:     2.008 HEAT:  79.90469
 CYCLE:    81 TIME:   0.023 TIME LEFT:  2.00D  GRAD.:     1.589 HEAT:  79.90308
 CYCLE:    82 TIME:   0.031 TIME LEFT:  2.00D  GRAD.:     1.386 HEAT:  79.90064
 CYCLE:    83 TIME:   0.023 TIME LEFT:  2.00D  GRAD.:     2.516 HEAT:  79.89842
 CYCLE:    84 TIME:   0.023 TIME LEFT:  2.00D  GRAD.:     1.768 HEAT:  79.89614
 CYCLE:    85 TIME:   0.031 TIME LEFT:  2.00D  GRAD.:     1.445 HEAT:  79.89410
 CYCLE:    86 TIME:   0.031 TIME LEFT:  2.00D  GRAD.:     3.302 HEAT:  79.89212
 CYCLE:    87 TIME:   0.023 TIME LEFT:  2.00D  GRAD.:     2.114 HEAT:  79.88852
 CYCLE:    88 TIME:   0.023 TIME LEFT:  2.00D  GRAD.:     1.426 HEAT:  79.88487
 CYCLE:    89 TIME:   0.031 TIME LEFT:  2.00D  GRAD.:     1.541 HEAT:  79.88256
 CYCLE:    90 TIME:   0.031 TIME LEFT:  2.00D  GRAD.:     1.467 HEAT:  79.87936
 CYCLE:    91 TIME:   0.023 TIME LEFT:  2.00D  GRAD.:     5.415 HEAT:  79.87975
 CYCLE:    92 TIME:   0.031 TIME LEFT:  2.00D  GRAD.:     1.672 HEAT:  79.87435
 CYCLE:    93 TIME:   0.023 TIME LEFT:  2.00D  GRAD.:     1.114 HEAT:  79.87282
 CYCLE:    94 TIME:   0.039 TIME LEFT:  2.00D  GRAD.:     1.357 HEAT:  79.87046
 CYCLE:    95 TIME:   0.031 TIME LEFT:  2.00D  GRAD.:     2.963 HEAT:  79.86893
 CYCLE:    96 TIME:   0.023 TIME LEFT:  2.00D  GRAD.:     1.830 HEAT:  79.86673
 CYCLE:    97 TIME:   0.023 TIME LEFT:  2.00D  GRAD.:     0.910 HEAT:  79.86566

 -------------------------------------------------------------------------------
 PM7 XYZ

 Lipophilicity_532 - geometry optimisation


     HERBERTS TEST WAS SATISFIED IN BFGS                      
     SCF FIELD WAS ACHIEVED                                   


                              PM7 CALCULATION
                                                       MOPAC v23.0.3 Linux
                                                       Fri Jul 25 20:02:58 2025




          FINAL HEAT OF FORMATION =         79.86566 KCAL/MOL =     334.15792 KJ/MOL


          COSMO AREA              =        352.16 SQUARE ANGSTROMS
          COSMO VOLUME            =        387.88 CUBIC ANGSTROMS

          GRADIENT NORM           =          0.90983          =       0.13875 PER ATOM
          IONIZATION POTENTIAL    =          8.115006 EV
          HOMO LUMO ENERGIES (EV) =         -8.115 -1.327
          NO. OF FILLED LEVELS    =         60
          MOLECULAR WEIGHT        =        317.3896         POINT GROUP:  C1  

          MOLECULAR DIMENSIONS (Angstroms)

            Atom       Atom       Distance
            H    40    H    32    13.99261
            H    41    H    25     9.49861
            H    37    H    31     4.77906


          SCF CALCULATIONS        =         98

          WALL-CLOCK TIME         =      2.664 SECONDS
          COMPUTATION TIME        =     53.180 SECONDS




   ATOM   CHEMICAL          X               Y               Z
  NUMBER   SYMBOL      (ANGSTROMS)     (ANGSTROMS)     (ANGSTROMS)

     1       C         -1.89210521  *  -3.46981318  *  -2.96384687  *
     2       O         -0.60897453  *  -3.53021214  *  -2.35068617  *
     3       C         -0.20634690  *  -2.46522301  *  -1.64823301  *
     4       C          1.11680422  *  -2.30176914  *  -1.33582720  *
     5       C          1.18404104  *  -1.06432109  *  -0.55172030  *
     6       N         -0.00476526  *  -0.49066762  *  -0.41300569  *
     7       C         -0.97235514  *  -1.33383840  *  -1.04174314  *
     8       C         -2.30423920  *  -1.13440208  *  -0.95976332  *
     9       C         -2.92670734  *   0.02226255  *  -0.38768810  *
    10       N         -4.14097662  *  -0.10012303  *   0.32156529  *
    11       C         -4.52806960  *   1.15295147  *   0.76239434  *
    12       C         -5.74530855  *   1.35807973  *   1.57080704  *
    13       C         -3.60428034  *   2.09073744  *   0.29288250  *
    14       C         -2.59813082  *   1.38850975  *  -0.42480593  *
    15       C         -1.45488059  *   2.01396273  *  -1.10775509  *
    16       C          2.37536516  *  -0.51102257  *   0.04198189  *
    17       C          3.69697228  *  -0.93791641  *  -0.02588925  *
    18       C          4.46837295  *  -0.05067370  *   0.78699823  *
    19       C          5.82681903  *   0.02650037  *   1.12435665  *
    20       C          6.24450499  *   1.03161466  *   1.97292098  *
    21       C          5.33486709  *   1.97893589  *   2.50046538  *
    22       C          3.99135579  *   1.94041089  *   2.19256667  *
    23       C          3.55908015  *   0.91697655  *   1.33297653  *
    24       N          2.28947146  *   0.62636947  *   0.86168552  *
    25       H         -1.82435765  *  -4.26200202  *  -3.72385302  *
    26       H         -2.66326772  *  -3.71796196  *  -2.22803525  *
    27       H         -2.07505893  *  -2.50356372  *  -3.44292378  *
    28       H          1.95018544  *  -2.91493812  *  -1.59244441  *
    29       H         -2.99712990  *  -1.89691715  *  -1.33321796  *
    30       H         -4.56380726  *  -0.96225192  *   0.57216290  *
    31       H         -5.96180220  *   0.51950048  *   2.24742269  *
    32       H         -6.63247084  *   1.50504084  *   0.93313907  *
    33       H         -5.65561679  *   2.25917655  *   2.20027000  *
    34       H         -3.63846229  *   3.14545481  *   0.44449683  *
    35       H         -1.16899848  *   1.47067027  *  -2.02221589  *
    36       H         -0.55888653  *   1.99483439  *  -0.45998906  *
    37       H         -1.64866121  *   3.05899106  *  -1.38078522  *
    38       H          4.07572816  *  -1.77133158  *  -0.57674204  *
    39       H          6.52583737  *  -0.70151329  *   0.72063772  *
    40       H          7.29215118  *   1.10896580  *   2.25261800  *
    41       H          5.71844692  *   2.75153699  *   3.16511171  *
    42       H          3.29013906  *   2.66303799  *   2.59305245  *
    43       H          1.43552027  *   1.09595068  *   1.08064135  *

                             CARTESIAN COORDINATES

   1    C       -1.892105208    -3.469813183    -2.963846866
   2    O       -0.608974534    -3.530212143    -2.350686170
   3    C       -0.206346896    -2.465223014    -1.648233009
   4    C        1.116804215    -2.301769139    -1.335827200
   5    C        1.184041037    -1.064321092    -0.551720301
   6    N       -0.004765259    -0.490667616    -0.413005687
   7    C       -0.972355135    -1.333838395    -1.041743139
   8    C       -2.304239197    -1.134402081    -0.959763322
   9    C       -2.926707337     0.022262553    -0.387688099
  10    N       -4.140976621    -0.100123033     0.321565289
  11    C       -4.528069600     1.152951466     0.762394342
  12    C       -5.745308554     1.358079731     1.570807037
  13    C       -3.604280338     2.090737437     0.292882495
  14    C       -2.598130818     1.388509752    -0.424805933
  15    C       -1.454880588     2.013962729    -1.107755089
  16    C        2.375365158    -0.511022570     0.041981891
  17    C        3.696972277    -0.937916410    -0.025889246
  18    C        4.468372953    -0.050673700     0.786998231
  19    C        5.826819028     0.026500374     1.124356649
  20    C        6.244504991     1.031614658     1.972920978
  21    C        5.334867088     1.978935890     2.500465379
  22    C        3.991355790     1.940410892     2.192566672
  23    C        3.559080148     0.916976552     1.332976528
  24    N        2.289471462     0.626369475     0.861685525
  25    H       -1.824357652    -4.262002017    -3.723853022
  26    H       -2.663267716    -3.717961961    -2.228035250
  27    H       -2.075058929    -2.503563717    -3.442923780
  28    H        1.950185440    -2.914938119    -1.592444414
  29    H       -2.997129904    -1.896917148    -1.333217959
  30    H       -4.563807257    -0.962251922     0.572162902
  31    H       -5.961802199     0.519500476     2.247422694
  32    H       -6.632470837     1.505040840     0.933139073
  33    H       -5.655616790     2.259176548     2.200270004
  34    H       -3.638462294     3.145454809     0.444496831
  35    H       -1.168998480     1.470670271    -2.022215890
  36    H       -0.558886526     1.994834391    -0.459989060
  37    H       -1.648661210     3.058991057    -1.380785216
  38    H        4.075728164    -1.771331580    -0.576742037
  39    H        6.525837368    -0.701513290     0.720637724
  40    H        7.292151176     1.108965802     2.252617996
  41    H        5.718446923     2.751536991     3.165111706
  42    H        3.290139061     2.663037992     2.593052449
  43    H        1.435520274     1.095950675     1.080641346


           Empirical Formula: C20 H19 N3 O  =    43 atoms



      MOLECULAR POINT GROUP   :   C1  


                  EIGENVALUES  
 -37.60517 -37.43927 -35.68932 -31.08525 -29.98042 -28.50861 -28.02309 -27.66284
 -26.92373 -26.74071 -25.43683 -25.37693 -24.82030 -24.60516 -23.14077 -21.94707
 -20.94863 -20.46301 -20.27640 -19.84784 -19.41043 -18.84071 -18.44090 -17.90621
 -17.19359 -16.81158 -16.30788 -16.06520 -15.76827 -15.46431 -15.26819 -15.05429
 -15.00941 -14.73079 -14.51086 -14.44257 -14.40413 -14.15029 -13.94361 -13.81920
 -13.80648 -13.68201 -13.47289 -13.15004 -12.94158 -12.77017 -12.67685 -12.35186
 -12.26538 -12.02227 -11.86107 -11.63795 -10.77925 -10.48966 -10.39967  -9.33639
  -9.21878  -8.82145  -8.54365  -8.11501  -1.32721  -0.03579   0.65614   0.88070
   1.12407   1.35966   1.57235   1.90620   2.23629   2.33628   2.43547   2.81076
   3.02447   3.29646   3.77779   3.89425   4.15144   4.21571   4.25595   4.44736
   4.46522   4.59012   4.68213   4.85446   4.86547   4.91453   4.94473   5.02279
   5.10888   5.17957   5.19251   5.24450   5.28064   5.32670   5.39089   5.46882
   5.49320   5.67989   5.71824   5.91719   5.93060   6.06138   6.12829   6.16322
   6.20109   6.29955   6.37307   6.38063   6.47276   6.51367   6.55977   6.63623
   6.74176   6.85304   7.30940


              NET ATOMIC CHARGES AND DIPOLE CONTRIBUTIONS

  ATOM NO.   TYPE          CHARGE      No. of ELECS.   s-Pop       p-Pop       
    1          C          -0.211779        4.2118     1.08984     3.12194
    2          O          -0.269159        6.2692     1.86063     4.40853
    3          C           0.209941        3.7901     1.10536     2.68469
    4          C          -0.354896        4.3549     1.08121     3.27368
    5          C           0.216565        3.7834     1.07323     2.71021
    6          N          -0.428492        5.4285     1.77408     3.65441
    7          C           0.017108        3.9829     1.07109     2.91180
    8          C          -0.056296        4.0563     1.08364     2.97265
    9          C          -0.050609        4.0506     1.04147     3.00914
   10          N          -0.344426        5.3444     1.51714     3.82728
   11          C           0.133903        3.8661     1.06022     2.80588
   12          C          -0.453561        4.4536     1.04582     3.40774
   13          C          -0.318324        4.3183     1.07422     3.24411
   14          C           0.079810        3.9202     1.06567     2.85452
   15          C          -0.428885        4.4289     1.04306     3.38583
   16          C           0.074866        3.9251     1.05237     2.87277
   17          C          -0.214721        4.2147     1.07755     3.13718
   18          C          -0.077662        4.0777     1.05642     3.02124
   19          C          -0.099392        4.0994     1.08052     3.01887
   20          C          -0.202394        4.2024     1.07778     3.12461
   21          C          -0.111383        4.1114     1.08249     3.02889
   22          C          -0.214884        4.2149     1.07143     3.14345
   23          C           0.112386        3.8876     1.05616     2.83145
   24          N          -0.340247        5.3402     1.51153     3.82872
   25          H           0.157126        0.8429     0.84287
   26          H           0.134031        0.8660     0.86597
   27          H           0.142297        0.8577     0.85770
   28          H           0.184095        0.8159     0.81591
   29          H           0.150367        0.8496     0.84963
   30          H           0.304175        0.6958     0.69582
   31          H           0.157982        0.8420     0.84202
   32          H           0.166646        0.8334     0.83335
   33          H           0.173141        0.8269     0.82686
   34          H           0.164812        0.8352     0.83519
   35          H           0.163088        0.8369     0.83691
   36          H           0.179759        0.8202     0.82024
   37          H           0.148920        0.8511     0.85108
   38          H           0.170862        0.8291     0.82914
   39          H           0.151161        0.8488     0.84884
   40          H           0.148113        0.8519     0.85189
   41          H           0.145543        0.8545     0.85446
   42          H           0.157206        0.8428     0.84279
   43          H           0.333206        0.6668     0.66679
 DIPOLE           X         Y         Z       TOTAL
 POINT-CHG.    -4.770    -0.172    -0.490     4.799
 HYBRID        -1.108    -1.122     0.024     1.577
 SUM           -5.879    -1.294    -0.466     6.038


          ATOMIC ORBITAL ELECTRON POPULATIONS

     Atom    s        px        py        pz   
    1  C   1.08984   0.88434   1.16125   1.07635
    2  O   1.86063   1.36922   1.39045   1.64885
    3  C   1.10536   0.95641   0.85372   0.87456
    4  C   1.08121   1.03968   1.07959   1.15441
    5  C   1.07323   0.90119   0.90982   0.89920
    6  N   1.77408   1.07110   1.31579   1.26752
    7  C   1.07109   0.94793   0.94065   1.02323
    8  C   1.08364   1.00916   1.01132   0.95217
    9  C   1.04147   0.89203   0.98993   1.12718
   10  N   1.51714   1.25326   1.14333   1.43069
   11  C   1.06022   0.97487   0.83835   0.99266
   12  C   1.04582   1.07968   1.19113   1.13693
   13  C   1.07422   1.03803   1.07339   1.13269
   14  C   1.06567   0.95676   0.93896   0.95880
   15  C   1.04306   1.09042   1.14133   1.15408
   16  C   1.05237   0.97274   0.90488   0.99515
   17  C   1.07755   0.97401   1.08033   1.08284
   18  C   1.05642   0.97697   1.00582   1.03845
   19  C   1.08052   1.01337   1.01913   0.98637
   20  C   1.07778   1.07536   1.01191   1.03734
   21  C   1.08249   0.98665   1.02833   1.01391
   22  C   1.07143   1.03683   1.05225   1.05437
   23  C   1.05616   0.83478   1.00207   0.99460
   24  N   1.51153   1.14814   1.28315   1.39743
   25  H   0.84287
   26  H   0.86597
   27  H   0.85770
   28  H   0.81591
   29  H   0.84963
   30  H   0.69582
   31  H   0.84202
   32  H   0.83335
   33  H   0.82686
   34  H   0.83519
   35  H   0.83691
   36  H   0.82024
   37  H   0.85108
   38  H   0.82914
   39  H   0.84884
   40  H   0.85189
   41  H   0.85446
   42  H   0.84279
   43  H   0.66679

 **********************
 *                    *
 * JOB ENDED NORMALLY *
 *                    *
 **********************



 TOTAL JOB TIME:             2.66 SECONDS

 == MOPAC DONE ==
