 *******************************************************************************
 **                                                                           **
 **                              MOPAC v23.0.3                                **
 **                                                                           **
 *******************************************************************************
 **          Digital Object Identifier (DOI): 10.5281/zenodo.6511958          **
 **    Visit the DOI location for information on how to cite this program.    **
 *******************************************************************************

                              PM7 CALCULATION RESULTS

 *******************************************************************************
 *  CALCULATION DONE:                                Fri Jul 25 18:16:39 2025  *
 *  PM7        - The PM7 Hamiltonian to be used
 *  XYZ        - CARTESIAN COORDINATE SYSTEM TO BE USED
 *  T=         - A TIME OF 172800.0 SECONDS REQUESTED
 *  DUMP=N     - RESTART FILE WRITTEN EVERY 7200.0 SECONDS REQUESTED
 *******************************************************************************
PM7 XYZ

 Lipophilicity_1810 - geometry optimisation
   ATOM   CHEMICAL          X               Y               Z
  NUMBER   SYMBOL      (ANGSTROMS)     (ANGSTROMS)     (ANGSTROMS)

     1       C         -1.23666800  *   1.57390700  *   2.19430000  *
     2       C         -2.66537600  *   1.14306400  *   1.86493200  *
     3       O         -2.76716900  *   0.89965400  *   0.47584400  *
     4       C         -3.35013900  *  -0.37184600  *   0.31631300  *
     5       C         -3.05659000  *  -1.18408300  *   1.56537600  *
     6       O         -4.03667900  *  -2.16384500  *   1.79187200  *
     7       C         -3.06077600  *  -0.12568900  *   2.63858900  *
     8       O         -4.34914800  *   0.02049800  *   3.18189900  *
     9       N         -2.81939400  *  -1.03213200  *  -0.87763000  *
    10       C         -3.50366800  *  -1.82213400  *  -1.74491000  *
    11       N         -2.72307400  *  -2.34981800  *  -2.72768100  *
    12       C         -1.50413100  *  -1.86040600  *  -2.43289200  *
    13       C         -0.29233700  *  -2.06217900  *  -3.08141200  *
    14       N         -0.19017900  *  -2.87597700  *  -4.24991800  *
    15       N          0.81319900  *  -1.45181000  *  -2.56050900  *
    16       C          0.74057400  *  -0.66953300  *  -1.43559200  *
    17       O          1.90533300  *  -0.07040300  *  -0.95057400  *
    18       C          1.93430800  *   0.72300600  *   0.23469400  *
    19       C          3.32823600  *   1.30791500  *   0.50299400  *
    20       C          4.42416500  *   0.31603500  *   0.52407200  *
    21       C          4.31584500  *   1.27408500  *  -0.69981700  *
    22       C          5.77875000  *   1.79254300  *  -0.77341300  *
    23       C          4.68695500  *   2.78041500  *  -0.78247600  *
    24       N         -0.46193000  *  -0.48085000  *  -0.80424600  *
    25       C         -1.55784700  *  -1.08252700  *  -1.32785500  *
    26       H         -1.15815000  *   1.84918100  *   3.26756100  *
    27       H         -0.95617500  *   2.45619700  *   1.58084400  *
    28       H         -0.52905700  *   0.74672400  *   1.98031400  *
    29       H         -3.34451900  *   1.98483500  *   2.12668100  *
    30       H         -4.45080700  *  -0.23631700  *   0.20351100  *
    31       H         -2.04177100  *  -1.64539000  *   1.50999900  *
    32       H         -3.85551300  *  -2.89559900  *   1.14624400  *
    33       H         -2.33607100  *  -0.39516100  *   3.44361400  *
    34       H         -4.24888600  *   0.57805400  *   3.99725600  *
    35       H         -4.56416100  *  -2.02241300  *  -1.66201500  *
    36       H         -1.03102000  *  -3.34550200  *  -4.65368500  *
    37       H          0.73425100  *  -3.01010000  *  -4.71626600  *
    38       H          1.21865800  *   1.56622500  *   0.13046600  *
    39       H          1.63326900  *   0.10147000  *   1.10478800  *
    40       H          3.42410100  *   2.04938700  *   1.32912700  *
    41       H          4.12243300  *  -0.72998200  *   0.30270500  *
    42       H          5.14612100  *   0.51939800  *   1.34724200  *
    43       H          6.40761700  *   1.88508500  *   0.14116500  *
    44       H          6.25504400  *   1.66130100  *  -1.76783600  *
    45       H          4.70582400  *   3.42156500  *   0.12829300  *
    46       H          4.51655000  *   3.23314800  *  -1.78196900  *



          CARTESIAN COORDINATES 

    NO.       ATOM           X           Y           Z

     1         C         -1.2367      1.5739      2.1943
     2         C         -2.6654      1.1431      1.8649
     3         O         -2.7672      0.8997      0.4758
     4         C         -3.3501     -0.3718      0.3163
     5         C         -3.0566     -1.1841      1.5654
     6         O         -4.0367     -2.1638      1.7919
     7         C         -3.0608     -0.1257      2.6386
     8         O         -4.3491      0.0205      3.1819
     9         N         -2.8194     -1.0321     -0.8776
    10         C         -3.5037     -1.8221     -1.7449
    11         N         -2.7231     -2.3498     -2.7277
    12         C         -1.5041     -1.8604     -2.4329
    13         C         -0.2923     -2.0622     -3.0814
    14         N         -0.1902     -2.8760     -4.2499
    15         N          0.8132     -1.4518     -2.5605
    16         C          0.7406     -0.6695     -1.4356
    17         O          1.9053     -0.0704     -0.9506
    18         C          1.9343      0.7230      0.2347
    19         C          3.3282      1.3079      0.5030
    20         C          4.4242      0.3160      0.5241
    21         C          4.3158      1.2741     -0.6998
    22         C          5.7788      1.7925     -0.7734
    23         C          4.6870      2.7804     -0.7825
    24         N         -0.4619     -0.4809     -0.8042
    25         C         -1.5578     -1.0825     -1.3279
    26         H         -1.1582      1.8492      3.2676
    27         H         -0.9562      2.4562      1.5808
    28         H         -0.5291      0.7467      1.9803
    29         H         -3.3445      1.9848      2.1267
    30         H         -4.4508     -0.2363      0.2035
    31         H         -2.0418     -1.6454      1.5100
    32         H         -3.8555     -2.8956      1.1462
    33         H         -2.3361     -0.3952      3.4436
    34         H         -4.2489      0.5781      3.9973
    35         H         -4.5642     -2.0224     -1.6620
    36         H         -1.0310     -3.3455     -4.6537
    37         H          0.7343     -3.0101     -4.7163
    38         H          1.2187      1.5662      0.1305
    39         H          1.6333      0.1015      1.1048
    40         H          3.4241      2.0494      1.3291
    41         H          4.1224     -0.7300      0.3027
    42         H          5.1461      0.5194      1.3472
    43         H          6.4076      1.8851      0.1412
    44         H          6.2550      1.6613     -1.7678
    45         H          4.7058      3.4216      0.1283
    46         H          4.5165      3.2331     -1.7820

 General Reference for PM7:
 "Optimization of Parameters for Semiempirical Methods VI: More Modifications to the 
 NDDO Approximations and Re-optimization of Parameters", J. J. P. Stewart, J. Mol. Mod., 1:32, 19 (2013)
 https://link.springer.com/article/10.1007/s00894-012-1667-x

           Empirical Formula: C16 H21 N5 O4  =    46 atoms



      MOLECULAR POINT GROUP   :   C1  


      RHF CALCULATION, NO. OF DOUBLY OCCUPIED LEVELS = 67


          Geometry optimization using L-BFGS
 CYCLE:     1 TIME:   0.055 TIME LEFT:  2.00D  GRAD.:   305.155 HEAT:  87.28433
 CYCLE:     2 TIME:   0.031 TIME LEFT:  2.00D  GRAD.:   298.658 HEAT:  86.36311
 CYCLE:     3 TIME:   0.039 TIME LEFT:  2.00D  GRAD.:   107.590 HEAT:  57.08764
 CYCLE:     4 TIME:   0.039 TIME LEFT:  2.00D  GRAD.:   299.077 HEAT:  86.37096
 CYCLE:     5 TIME:   0.039 TIME LEFT:  2.00D  GRAD.:   107.951 HEAT:  57.03542
 CYCLE:     6 TIME:   0.039 TIME LEFT:  2.00D  GRAD.:    87.942 HEAT:  50.83173
 CYCLE:     7 TIME:   0.047 TIME LEFT:  2.00D  GRAD.:   100.009 HEAT:  42.03359
 CYCLE:     8 TIME:   0.047 TIME LEFT:  2.00D  GRAD.:   163.668 HEAT:  35.02041
 CYCLE:     9 TIME:   0.039 TIME LEFT:  2.00D  GRAD.:    86.627 HEAT:  27.30264
 CYCLE:    10 TIME:   0.039 TIME LEFT:  2.00D  GRAD.:    66.232 HEAT:  21.75888
 CYCLE:    11 TIME:   0.031 TIME LEFT:  2.00D  GRAD.:    66.101 HEAT:  18.73502
 CYCLE:    12 TIME:   0.039 TIME LEFT:  2.00D  GRAD.:   105.607 HEAT:  13.15569
 CYCLE:    13 TIME:   0.039 TIME LEFT:  2.00D  GRAD.:    78.378 HEAT:  8.818276
 CYCLE:    14 TIME:   0.031 TIME LEFT:  2.00D  GRAD.:    61.958 HEAT:  5.866381
 CYCLE:    15 TIME:   0.031 TIME LEFT:  2.00D  GRAD.:    64.826 HEAT: 0.1422995E-01
 CYCLE:    16 TIME:   0.031 TIME LEFT:  2.00D  GRAD.:   109.130 HEAT: -4.961785
 CYCLE:    17 TIME:   0.039 TIME LEFT:  2.00D  GRAD.:    64.936 HEAT: -9.892990
 CYCLE:    18 TIME:   0.031 TIME LEFT:  2.00D  GRAD.:    50.359 HEAT: -13.27663
 CYCLE:    19 TIME:   0.031 TIME LEFT:  2.00D  GRAD.:    71.010 HEAT: -16.12877
 CYCLE:    20 TIME:   0.031 TIME LEFT:  2.00D  GRAD.:    62.588 HEAT: -19.43472
 CYCLE:    21 TIME:   0.039 TIME LEFT:  2.00D  GRAD.:    62.770 HEAT: -23.68992
 CYCLE:    22 TIME:   0.031 TIME LEFT:  2.00D  GRAD.:   104.413 HEAT: -26.29041
 CYCLE:    23 TIME:   0.031 TIME LEFT:  2.00D  GRAD.:    58.678 HEAT: -29.71686
 CYCLE:    24 TIME:   0.031 TIME LEFT:  2.00D  GRAD.:    50.022 HEAT: -30.93713
 CYCLE:    25 TIME:   0.031 TIME LEFT:  2.00D  GRAD.:    47.685 HEAT: -32.23622
 CYCLE:    26 TIME:   0.031 TIME LEFT:  2.00D  GRAD.:    35.851 HEAT: -33.95282
 CYCLE:    27 TIME:   0.031 TIME LEFT:  2.00D  GRAD.:    36.063 HEAT: -35.49961
 CYCLE:    28 TIME:   0.039 TIME LEFT:  2.00D  GRAD.:    70.323 HEAT: -36.73253
 CYCLE:    29 TIME:   0.031 TIME LEFT:  2.00D  GRAD.:    34.885 HEAT: -38.33781
 CYCLE:    30 TIME:   0.031 TIME LEFT:  2.00D  GRAD.:    36.581 HEAT: -39.98916
 CYCLE:    31 TIME:   0.031 TIME LEFT:  2.00D  GRAD.:    37.897 HEAT: -40.99202
 CYCLE:    32 TIME:   0.031 TIME LEFT:  2.00D  GRAD.:    59.779 HEAT: -41.23115
 CYCLE:    33 TIME:   0.031 TIME LEFT:  2.00D  GRAD.:    23.685 HEAT: -42.81098
 CYCLE:    34 TIME:   0.031 TIME LEFT:  2.00D  GRAD.:    22.899 HEAT: -43.27532
 CYCLE:    35 TIME:   0.031 TIME LEFT:  2.00D  GRAD.:    20.743 HEAT: -43.83863
 CYCLE:    36 TIME:   0.039 TIME LEFT:  2.00D  GRAD.:    50.318 HEAT: -44.13000
 CYCLE:    37 TIME:   0.023 TIME LEFT:  2.00D  GRAD.:    32.753 HEAT: -45.00172
 CYCLE:    38 TIME:   0.031 TIME LEFT:  2.00D  GRAD.:    22.885 HEAT: -45.47259
 CYCLE:    39 TIME:   0.031 TIME LEFT:  2.00D  GRAD.:    22.698 HEAT: -46.05132
 CYCLE:    40 TIME:   0.031 TIME LEFT:  2.00D  GRAD.:    35.400 HEAT: -46.45540
 CYCLE:    41 TIME:   0.031 TIME LEFT:  2.00D  GRAD.:    20.404 HEAT: -47.01824
 CYCLE:    42 TIME:   0.031 TIME LEFT:  2.00D  GRAD.:    15.736 HEAT: -47.31470
 CYCLE:    43 TIME:   0.031 TIME LEFT:  2.00D  GRAD.:    19.325 HEAT: -47.65030
 CYCLE:    44 TIME:   0.031 TIME LEFT:  2.00D  GRAD.:    23.248 HEAT: -47.95051
 CYCLE:    45 TIME:   0.031 TIME LEFT:  2.00D  GRAD.:    21.176 HEAT: -48.28218
 CYCLE:    46 TIME:   0.031 TIME LEFT:  2.00D  GRAD.:    40.277 HEAT: -48.91194
 CYCLE:    47 TIME:   0.031 TIME LEFT:  2.00D  GRAD.:    31.807 HEAT: -49.42100
 CYCLE:    48 TIME:   0.031 TIME LEFT:  2.00D  GRAD.:    21.343 HEAT: -49.81228
 CYCLE:    49 TIME:   0.031 TIME LEFT:  2.00D  GRAD.:    20.667 HEAT: -50.56736
 CYCLE:    50 TIME:   0.031 TIME LEFT:  2.00D  GRAD.:    33.863 HEAT: -50.94740
 CYCLE:    51 TIME:   0.039 TIME LEFT:  2.00D  GRAD.:    21.040 HEAT: -51.42827
 CYCLE:    52 TIME:   0.031 TIME LEFT:  2.00D  GRAD.:    23.209 HEAT: -51.79239
 CYCLE:    53 TIME:   0.031 TIME LEFT:  2.00D  GRAD.:    19.727 HEAT: -52.10496
 CYCLE:    54 TIME:   0.031 TIME LEFT:  2.00D  GRAD.:    24.922 HEAT: -52.46174
 CYCLE:    55 TIME:   0.031 TIME LEFT:  2.00D  GRAD.:    17.293 HEAT: -52.88187
 CYCLE:    56 TIME:   0.031 TIME LEFT:  2.00D  GRAD.:    19.961 HEAT: -53.26579
 CYCLE:    57 TIME:   0.031 TIME LEFT:  2.00D  GRAD.:    36.780 HEAT: -53.71421
 CYCLE:    58 TIME:   0.031 TIME LEFT:  2.00D  GRAD.:    25.148 HEAT: -54.29784
 CYCLE:    59 TIME:   0.031 TIME LEFT:  2.00D  GRAD.:    27.145 HEAT: -54.91515
 CYCLE:    60 TIME:   0.039 TIME LEFT:  2.00D  GRAD.:    41.794 HEAT: -55.29831
 CYCLE:    61 TIME:   0.031 TIME LEFT:  2.00D  GRAD.:    36.080 HEAT: -55.91565
 CYCLE:    62 TIME:   0.031 TIME LEFT:  2.00D  GRAD.:    40.106 HEAT: -56.31054
 CYCLE:    63 TIME:   0.031 TIME LEFT:  2.00D  GRAD.:    16.162 HEAT: -56.79603
 CYCLE:    64 TIME:   0.031 TIME LEFT:  2.00D  GRAD.:    20.454 HEAT: -57.11399
 CYCLE:    65 TIME:   0.031 TIME LEFT:  2.00D  GRAD.:    31.507 HEAT: -57.60609
 CYCLE:    66 TIME:   0.031 TIME LEFT:  2.00D  GRAD.:    30.388 HEAT: -58.11035
 CYCLE:    67 TIME:   0.031 TIME LEFT:  2.00D  GRAD.:    26.064 HEAT: -58.60706
 CYCLE:    68 TIME:   0.031 TIME LEFT:  2.00D  GRAD.:    28.227 HEAT: -58.85432
 CYCLE:    69 TIME:   0.031 TIME LEFT:  2.00D  GRAD.:    16.433 HEAT: -59.06214
 CYCLE:    70 TIME:   0.023 TIME LEFT:  2.00D  GRAD.:    13.465 HEAT: -59.35102
 CYCLE:    71 TIME:   0.039 TIME LEFT:  2.00D  GRAD.:    15.622 HEAT: -59.56800
 CYCLE:    72 TIME:   0.031 TIME LEFT:  2.00D  GRAD.:    33.213 HEAT: -59.78096
 CYCLE:    73 TIME:   0.031 TIME LEFT:  2.00D  GRAD.:    14.670 HEAT: -60.11342
 CYCLE:    74 TIME:   0.023 TIME LEFT:  2.00D  GRAD.:    16.829 HEAT: -60.29196
 CYCLE:    75 TIME:   0.039 TIME LEFT:  2.00D  GRAD.:    25.034 HEAT: -60.42643
 CYCLE:    76 TIME:   0.031 TIME LEFT:  2.00D  GRAD.:    15.655 HEAT: -60.65557
 CYCLE:    77 TIME:   0.031 TIME LEFT:  2.00D  GRAD.:    11.836 HEAT: -60.79450
 CYCLE:    78 TIME:   0.023 TIME LEFT:  2.00D  GRAD.:    13.313 HEAT: -60.94327
 CYCLE:    79 TIME:   0.031 TIME LEFT:  2.00D  GRAD.:    18.587 HEAT: -61.11665
 CYCLE:    80 TIME:   0.031 TIME LEFT:  2.00D  GRAD.:    13.726 HEAT: -61.28913
 CYCLE:    81 TIME:   0.031 TIME LEFT:  2.00D  GRAD.:     9.099 HEAT: -61.40916
 CYCLE:    82 TIME:   0.031 TIME LEFT:  2.00D  GRAD.:    10.438 HEAT: -61.51826
 CYCLE:    83 TIME:   0.031 TIME LEFT:  2.00D  GRAD.:    11.570 HEAT: -61.59101
 CYCLE:    84 TIME:   0.023 TIME LEFT:  2.00D  GRAD.:     8.915 HEAT: -61.65959
 CYCLE:    85 TIME:   0.031 TIME LEFT:  2.00D  GRAD.:    10.661 HEAT: -61.74371
 CYCLE:    86 TIME:   0.031 TIME LEFT:  2.00D  GRAD.:    16.659 HEAT: -61.76662
 CYCLE:    87 TIME:   0.031 TIME LEFT:  2.00D  GRAD.:     6.848 HEAT: -61.81961
 CYCLE:    88 TIME:   0.031 TIME LEFT:  2.00D  GRAD.:     4.921 HEAT: -61.85224
 CYCLE:    89 TIME:   0.023 TIME LEFT:  2.00D  GRAD.:     6.926 HEAT: -61.89017
 CYCLE:    90 TIME:   0.031 TIME LEFT:  2.00D  GRAD.:     8.057 HEAT: -61.94898
 CYCLE:    91 TIME:   0.031 TIME LEFT:  2.00D  GRAD.:    22.145 HEAT: -61.96648
 CYCLE:    92 TIME:   0.031 TIME LEFT:  2.00D  GRAD.:     6.539 HEAT: -62.07737
 CYCLE:    93 TIME:   0.031 TIME LEFT:  2.00D  GRAD.:     5.549 HEAT: -62.11821
 CYCLE:    94 TIME:   0.031 TIME LEFT:  2.00D  GRAD.:     7.958 HEAT: -62.18831
 CYCLE:    95 TIME:   0.031 TIME LEFT:  2.00D  GRAD.:    19.285 HEAT: -62.22304
 CYCLE:    96 TIME:   0.258 TIME LEFT:  2.00D  GRAD.:    10.061 HEAT: -62.30252
 CYCLE:    97 TIME:   0.031 TIME LEFT:  2.00D  GRAD.:     7.211 HEAT: -62.37932
 CYCLE:    98 TIME:   0.031 TIME LEFT:  2.00D  GRAD.:     8.126 HEAT: -62.42949
 CYCLE:    99 TIME:   0.031 TIME LEFT:  2.00D  GRAD.:    10.555 HEAT: -62.48996
 CYCLE:   100 TIME:   0.039 TIME LEFT:  2.00D  GRAD.:    13.728 HEAT: -62.57246
 CYCLE:   101 TIME:   0.031 TIME LEFT:  2.00D  GRAD.:    10.575 HEAT: -62.62828
 CYCLE:   102 TIME:   0.023 TIME LEFT:  2.00D  GRAD.:     7.118 HEAT: -62.67562
 CYCLE:   103 TIME:   0.031 TIME LEFT:  2.00D  GRAD.:     6.134 HEAT: -62.73310
 CYCLE:   104 TIME:   0.031 TIME LEFT:  2.00D  GRAD.:    14.416 HEAT: -62.77891
 CYCLE:   105 TIME:   0.031 TIME LEFT:  2.00D  GRAD.:     7.895 HEAT: -62.83467
 CYCLE:   106 TIME:   0.031 TIME LEFT:  2.00D  GRAD.:     9.237 HEAT: -62.86944
 CYCLE:   107 TIME:   0.023 TIME LEFT:  2.00D  GRAD.:     5.015 HEAT: -62.90660
 CYCLE:   108 TIME:   0.031 TIME LEFT:  2.00D  GRAD.:     5.439 HEAT: -62.94738
 CYCLE:   109 TIME:   0.031 TIME LEFT:  2.00D  GRAD.:     8.615 HEAT: -62.99219
 CYCLE:   110 TIME:   0.031 TIME LEFT:  2.00D  GRAD.:    15.360 HEAT: -63.01411
 CYCLE:   111 TIME:   0.031 TIME LEFT:  2.00D  GRAD.:     6.790 HEAT: -63.06847
 CYCLE:   112 TIME:   0.031 TIME LEFT:  2.00D  GRAD.:     5.145 HEAT: -63.10547
 CYCLE:   113 TIME:   0.039 TIME LEFT:  2.00D  GRAD.:     6.554 HEAT: -63.14103
 CYCLE:   114 TIME:   0.031 TIME LEFT:  2.00D  GRAD.:     9.900 HEAT: -63.18954
 CYCLE:   115 TIME:   0.031 TIME LEFT:  2.00D  GRAD.:    14.258 HEAT: -63.20057
 CYCLE:   116 TIME:   0.031 TIME LEFT:  2.00D  GRAD.:     5.557 HEAT: -63.25175
 CYCLE:   117 TIME:   0.023 TIME LEFT:  2.00D  GRAD.:     3.962 HEAT: -63.27157
 CYCLE:   118 TIME:   0.031 TIME LEFT:  2.00D  GRAD.:     4.184 HEAT: -63.30382
 CYCLE:   119 TIME:   0.031 TIME LEFT:  2.00D  GRAD.:    11.082 HEAT: -63.33072
 CYCLE:   120 TIME:   0.031 TIME LEFT:  2.00D  GRAD.:     9.474 HEAT: -63.35758
 CYCLE:   121 TIME:   0.031 TIME LEFT:  2.00D  GRAD.:     5.228 HEAT: -63.38627
 CYCLE:   122 TIME:   0.031 TIME LEFT:  2.00D  GRAD.:     3.788 HEAT: -63.40715
 CYCLE:   123 TIME:   0.023 TIME LEFT:  2.00D  GRAD.:     4.732 HEAT: -63.43453
 CYCLE:   124 TIME:   0.031 TIME LEFT:  2.00D  GRAD.:    10.210 HEAT: -63.46539
 CYCLE:   125 TIME:   0.031 TIME LEFT:  2.00D  GRAD.:    17.477 HEAT: -63.46109
 CYCLE:   126 TIME:   0.031 TIME LEFT:  2.00D  GRAD.:     6.010 HEAT: -63.53019
 CYCLE:   127 TIME:   0.031 TIME LEFT:  2.00D  GRAD.:     4.067 HEAT: -63.55621
 CYCLE:   128 TIME:   0.039 TIME LEFT:  2.00D  GRAD.:     6.338 HEAT: -63.60296
 CYCLE:   129 TIME:   0.023 TIME LEFT:  2.00D  GRAD.:     7.200 HEAT: -63.65259
 CYCLE:   130 TIME:   0.031 TIME LEFT:  2.00D  GRAD.:    20.668 HEAT: -63.61634
 CYCLE:   131 TIME:   0.031 TIME LEFT:  2.00D  GRAD.:     4.937 HEAT: -63.70725
 CYCLE:   132 TIME:   0.031 TIME LEFT:  2.00D  GRAD.:     4.033 HEAT: -63.72587
 CYCLE:   133 TIME:   0.031 TIME LEFT:  2.00D  GRAD.:     7.170 HEAT: -63.76477
 CYCLE:   134 TIME:   0.031 TIME LEFT:  2.00D  GRAD.:     7.473 HEAT: -63.80114
 CYCLE:   135 TIME:   0.031 TIME LEFT:  2.00D  GRAD.:     6.829 HEAT: -63.87156
 CYCLE:   136 TIME:   0.031 TIME LEFT:  2.00D  GRAD.:     9.057 HEAT: -63.92834
 CYCLE:   137 TIME:   0.031 TIME LEFT:  2.00D  GRAD.:    26.086 HEAT: -63.87436
 CYCLE:   138 TIME:   0.031 TIME LEFT:  2.00D  GRAD.:    57.781 HEAT: -63.44826
 CYCLE:   139 TIME:   0.031 TIME LEFT:  2.00D  GRAD.:    11.600 HEAT: -64.04734
 CYCLE:   140 TIME:   0.039 TIME LEFT:  2.00D  GRAD.:     8.091 HEAT: -64.13972
 CYCLE:   141 TIME:   0.031 TIME LEFT:  2.00D  GRAD.:    36.202 HEAT: -63.95451
 CYCLE:   142 TIME:   0.031 TIME LEFT:  2.00D  GRAD.:    10.926 HEAT: -64.26570
 CYCLE:   143 TIME:   0.039 TIME LEFT:  2.00D  GRAD.:    19.812 HEAT: -64.12525
 CYCLE:   144 TIME:   0.031 TIME LEFT:  2.00D  GRAD.:    10.644 HEAT: -64.33760
 CYCLE:   145 TIME:   0.031 TIME LEFT:  2.00D  GRAD.:     6.734 HEAT: -64.40225
 CYCLE:   146 TIME:   0.031 TIME LEFT:  2.00D  GRAD.:     6.786 HEAT: -64.49434
 CYCLE:   147 TIME:   0.031 TIME LEFT:  2.00D  GRAD.:    20.246 HEAT: -64.48620
 CYCLE:   148 TIME:   0.039 TIME LEFT:  2.00D  GRAD.:    62.506 HEAT: -63.77910
 CYCLE:   149 TIME:   0.031 TIME LEFT:  2.00D  GRAD.:     6.556 HEAT: -64.62166
 CYCLE:   150 TIME:   0.031 TIME LEFT:  2.00D  GRAD.:     8.445 HEAT: -64.70164
 CYCLE:   151 TIME:   0.031 TIME LEFT:  2.00D  GRAD.:     9.157 HEAT: -64.77116
 CYCLE:   152 TIME:   0.031 TIME LEFT:  2.00D  GRAD.:    19.896 HEAT: -64.94154
 CYCLE:   153 TIME:   0.031 TIME LEFT:  2.00D  GRAD.:    34.168 HEAT: -64.63690
 CYCLE:   154 TIME:   0.031 TIME LEFT:  2.00D  GRAD.:     8.924 HEAT: -65.16433
 CYCLE:   155 TIME:   0.031 TIME LEFT:  2.00D  GRAD.:    10.429 HEAT: -65.22328
 CYCLE:   156 TIME:   0.031 TIME LEFT:  2.00D  GRAD.:    10.628 HEAT: -65.28456
 CYCLE:   157 TIME:   0.039 TIME LEFT:  2.00D  GRAD.:    15.307 HEAT: -65.51330
 CYCLE:   158 TIME:   0.031 TIME LEFT:  2.00D  GRAD.:    52.817 HEAT: -65.29147
 CYCLE:   159 TIME:   0.031 TIME LEFT:  2.00D  GRAD.:    12.396 HEAT: -65.76509
 CYCLE:   160 TIME:   0.031 TIME LEFT:  2.00D  GRAD.:    12.573 HEAT: -65.84148
 CYCLE:   161 TIME:   0.031 TIME LEFT:  2.00D  GRAD.:    12.461 HEAT: -66.01016
 CYCLE:   162 TIME:   0.031 TIME LEFT:  2.00D  GRAD.:    14.322 HEAT: -66.17245
 CYCLE:   163 TIME:   0.031 TIME LEFT:  2.00D  GRAD.:    16.781 HEAT: -66.25242
 CYCLE:   164 TIME:   0.031 TIME LEFT:  2.00D  GRAD.:     8.420 HEAT: -66.32755
 CYCLE:   165 TIME:   0.031 TIME LEFT:  2.00D  GRAD.:    10.496 HEAT: -66.39709
 CYCLE:   166 TIME:   0.031 TIME LEFT:  2.00D  GRAD.:    12.621 HEAT: -66.44775
 CYCLE:   167 TIME:   0.031 TIME LEFT:  2.00D  GRAD.:     7.545 HEAT: -66.52152
 CYCLE:   168 TIME:   0.031 TIME LEFT:  2.00D  GRAD.:     9.217 HEAT: -66.59006
 CYCLE:   169 TIME:   0.031 TIME LEFT:  2.00D  GRAD.:    10.104 HEAT: -66.64750
 CYCLE:   170 TIME:   0.031 TIME LEFT:  2.00D  GRAD.:     8.905 HEAT: -66.76427
 CYCLE:   171 TIME:   0.031 TIME LEFT:  2.00D  GRAD.:    20.017 HEAT: -66.84199
 CYCLE:   172 TIME:   0.031 TIME LEFT:  2.00D  GRAD.:     9.723 HEAT: -66.96775
 CYCLE:   173 TIME:   0.031 TIME LEFT:  2.00D  GRAD.:    11.887 HEAT: -67.06299
 CYCLE:   174 TIME:   0.031 TIME LEFT:  2.00D  GRAD.:    12.237 HEAT: -67.16770
 CYCLE:   175 TIME:   0.031 TIME LEFT:  2.00D  GRAD.:    19.009 HEAT: -67.28060
 CYCLE:   176 TIME:   0.031 TIME LEFT:  2.00D  GRAD.:     9.249 HEAT: -67.40571
 CYCLE:   177 TIME:   0.031 TIME LEFT:  2.00D  GRAD.:     8.150 HEAT: -67.46557
 CYCLE:   178 TIME:   0.031 TIME LEFT:  2.00D  GRAD.:     9.277 HEAT: -67.56298
 CYCLE:   179 TIME:   0.031 TIME LEFT:  2.00D  GRAD.:    28.825 HEAT: -67.54800
 CYCLE:   180 TIME:   0.031 TIME LEFT:  2.00D  GRAD.:     8.828 HEAT: -67.69868
 CYCLE:   181 TIME:   0.031 TIME LEFT:  2.00D  GRAD.:     9.273 HEAT: -67.71352
 CYCLE:   182 TIME:   0.031 TIME LEFT:  2.00D  GRAD.:     7.707 HEAT: -67.76556
 CYCLE:   183 TIME:   0.031 TIME LEFT:  2.00D  GRAD.:     6.427 HEAT: -67.81079
 CYCLE:   184 TIME:   0.023 TIME LEFT:  2.00D  GRAD.:     8.593 HEAT: -67.87922
 CYCLE:   185 TIME:   0.031 TIME LEFT:  2.00D  GRAD.:     9.329 HEAT: -67.91932
 CYCLE:   186 TIME:   0.031 TIME LEFT:  2.00D  GRAD.:     6.601 HEAT: -67.96612
 CYCLE:   187 TIME:   0.031 TIME LEFT:  2.00D  GRAD.:     7.817 HEAT: -68.03144
 CYCLE:   188 TIME:   0.039 TIME LEFT:  2.00D  GRAD.:    10.608 HEAT: -68.07709
 CYCLE:   189 TIME:   0.031 TIME LEFT:  2.00D  GRAD.:     7.872 HEAT: -68.13071
 CYCLE:   190 TIME:   0.031 TIME LEFT:  2.00D  GRAD.:     8.798 HEAT: -68.21450
 CYCLE:   191 TIME:   0.039 TIME LEFT:  2.00D  GRAD.:    12.515 HEAT: -68.25613
 CYCLE:   192 TIME:   0.023 TIME LEFT:  2.00D  GRAD.:     8.491 HEAT: -68.30377
 CYCLE:   193 TIME:   0.031 TIME LEFT:  2.00D  GRAD.:    10.727 HEAT: -68.36688
 CYCLE:   194 TIME:   0.031 TIME LEFT:  2.00D  GRAD.:    10.724 HEAT: -68.40791
 CYCLE:   195 TIME:   0.031 TIME LEFT:  2.00D  GRAD.:     6.905 HEAT: -68.46492
 CYCLE:   196 TIME:   0.031 TIME LEFT:  2.00D  GRAD.:     7.159 HEAT: -68.52594
 CYCLE:   197 TIME:   0.031 TIME LEFT:  2.00D  GRAD.:     7.499 HEAT: -68.56973
 CYCLE:   198 TIME:   0.031 TIME LEFT:  2.00D  GRAD.:    10.985 HEAT: -68.60713
 CYCLE:   199 TIME:   0.031 TIME LEFT:  2.00D  GRAD.:     7.229 HEAT: -68.65143
 CYCLE:   200 TIME:   0.023 TIME LEFT:  2.00D  GRAD.:     6.142 HEAT: -68.68036
 CYCLE:   201 TIME:   0.031 TIME LEFT:  2.00D  GRAD.:     5.895 HEAT: -68.71807
 CYCLE:   202 TIME:   0.031 TIME LEFT:  2.00D  GRAD.:     5.948 HEAT: -68.75801
 CYCLE:   203 TIME:   0.031 TIME LEFT:  2.00D  GRAD.:     9.151 HEAT: -68.78144
 CYCLE:   204 TIME:   0.031 TIME LEFT:  2.00D  GRAD.:     6.121 HEAT: -68.81476
 CYCLE:   205 TIME:   0.031 TIME LEFT:  2.00D  GRAD.:     5.043 HEAT: -68.86318
 CYCLE:   206 TIME:   0.023 TIME LEFT:  2.00D  GRAD.:     9.088 HEAT: -68.88825
 CYCLE:   207 TIME:   0.031 TIME LEFT:  2.00D  GRAD.:     5.250 HEAT: -68.91937
 CYCLE:   208 TIME:   0.031 TIME LEFT:  2.00D  GRAD.:     4.307 HEAT: -68.94699
 CYCLE:   209 TIME:   0.031 TIME LEFT:  2.00D  GRAD.:     5.771 HEAT: -68.96423
 CYCLE:   210 TIME:   0.023 TIME LEFT:  2.00D  GRAD.:     4.433 HEAT: -68.98500
 CYCLE:   211 TIME:   0.039 TIME LEFT:  2.00D  GRAD.:     4.161 HEAT: -69.00357
 CYCLE:   212 TIME:   0.031 TIME LEFT:  2.00D  GRAD.:     6.507 HEAT: -69.02613
 CYCLE:   213 TIME:   0.023 TIME LEFT:  2.00D  GRAD.:     5.606 HEAT: -69.05213
 CYCLE:   214 TIME:   0.031 TIME LEFT:  2.00D  GRAD.:     4.975 HEAT: -69.08089
 CYCLE:   215 TIME:   0.031 TIME LEFT:  2.00D  GRAD.:     7.346 HEAT: -69.11075
 CYCLE:   216 TIME:   0.031 TIME LEFT:  2.00D  GRAD.:     5.080 HEAT: -69.14181
 CYCLE:   217 TIME:   0.023 TIME LEFT:  2.00D  GRAD.:     4.700 HEAT: -69.16504
 CYCLE:   218 TIME:   0.031 TIME LEFT:  2.00D  GRAD.:     7.538 HEAT: -69.19126
 CYCLE:   219 TIME:   0.031 TIME LEFT:  2.00D  GRAD.:     4.807 HEAT: -69.21434
 CYCLE:   220 TIME:   0.023 TIME LEFT:  2.00D  GRAD.:     5.194 HEAT: -69.23463
 CYCLE:   221 TIME:   0.031 TIME LEFT:  2.00D  GRAD.:     6.567 HEAT: -69.26748
 CYCLE:   222 TIME:   0.039 TIME LEFT:  2.00D  GRAD.:    15.766 HEAT: -69.27193
 CYCLE:   223 TIME:   0.023 TIME LEFT:  2.00D  GRAD.:     6.194 HEAT: -69.31464
 CYCLE:   224 TIME:   0.031 TIME LEFT:  2.00D  GRAD.:     4.169 HEAT: -69.33981
 CYCLE:   225 TIME:   0.031 TIME LEFT:  2.00D  GRAD.:     6.177 HEAT: -69.36898
 CYCLE:   226 TIME:   0.031 TIME LEFT:  2.00D  GRAD.:     7.074 HEAT: -69.40809
 CYCLE:   227 TIME:   0.055 TIME LEFT:  2.00D  GRAD.:    11.496 HEAT: -69.43278
 CYCLE:   228 TIME:   0.031 TIME LEFT:  2.00D  GRAD.:     5.904 HEAT: -69.48721
 CYCLE:   229 TIME:   0.031 TIME LEFT:  2.00D  GRAD.:     5.621 HEAT: -69.51922
 CYCLE:   230 TIME:   0.023 TIME LEFT:  2.00D  GRAD.:     7.764 HEAT: -69.54557
 CYCLE:   231 TIME:   0.031 TIME LEFT:  2.00D  GRAD.:     4.648 HEAT: -69.57118
 CYCLE:   232 TIME:   0.031 TIME LEFT:  2.00D  GRAD.:     4.316 HEAT: -69.59345
 CYCLE:   233 TIME:   0.031 TIME LEFT:  2.00D  GRAD.:     8.289 HEAT: -69.61529
 CYCLE:   234 TIME:   0.031 TIME LEFT:  2.00D  GRAD.:     6.000 HEAT: -69.64220
 CYCLE:   235 TIME:   0.023 TIME LEFT:  2.00D  GRAD.:     4.496 HEAT: -69.66411
 CYCLE:   236 TIME:   0.039 TIME LEFT:  2.00D  GRAD.:     4.562 HEAT: -69.68723
 CYCLE:   237 TIME:   0.023 TIME LEFT:  2.00D  GRAD.:     5.243 HEAT: -69.70383
 CYCLE:   238 TIME:   0.031 TIME LEFT:  2.00D  GRAD.:     5.726 HEAT: -69.72268
 CYCLE:   239 TIME:   0.031 TIME LEFT:  2.00D  GRAD.:     8.260 HEAT: -69.73607
 CYCLE:   240 TIME:   0.031 TIME LEFT:  2.00D  GRAD.:     4.144 HEAT: -69.75706
 CYCLE:   241 TIME:   0.023 TIME LEFT:  2.00D  GRAD.:     4.334 HEAT: -69.77132
 CYCLE:   242 TIME:   0.031 TIME LEFT:  2.00D  GRAD.:     3.586 HEAT: -69.78655
 CYCLE:   243 TIME:   0.031 TIME LEFT:  2.00D  GRAD.:     8.492 HEAT: -69.80090
 CYCLE:   244 TIME:   0.031 TIME LEFT:  2.00D  GRAD.:     5.494 HEAT: -69.81942
 CYCLE:   245 TIME:   0.031 TIME LEFT:  2.00D  GRAD.:     3.396 HEAT: -69.82892
 CYCLE:   246 TIME:   0.023 TIME LEFT:  2.00D  GRAD.:     2.600 HEAT: -69.84301
 CYCLE:   247 TIME:   0.039 TIME LEFT:  2.00D  GRAD.:     4.483 HEAT: -69.86266
 CYCLE:   248 TIME:   0.023 TIME LEFT:  2.00D  GRAD.:     9.633 HEAT: -69.86740
 CYCLE:   249 TIME:   0.031 TIME LEFT:  2.00D  GRAD.:     4.127 HEAT: -69.88638
 CYCLE:   250 TIME:   0.031 TIME LEFT:  2.00D  GRAD.:     2.292 HEAT: -69.89592
 CYCLE:   251 TIME:   0.031 TIME LEFT:  2.00D  GRAD.:     2.634 HEAT: -69.90188
 CYCLE:   252 TIME:   0.023 TIME LEFT:  2.00D  GRAD.:     4.517 HEAT: -69.91156
 CYCLE:   253 TIME:   0.031 TIME LEFT:  2.00D  GRAD.:     2.874 HEAT: -69.91963
 CYCLE:   254 TIME:   0.062 TIME LEFT:  2.00D  GRAD.:     2.085 HEAT: -69.92397
 CYCLE:   255 TIME:   0.031 TIME LEFT:  2.00D  GRAD.:     2.528 HEAT: -69.93023
 CYCLE:   256 TIME:   0.031 TIME LEFT:  2.00D  GRAD.:     3.423 HEAT: -69.93549
 CYCLE:   257 TIME:   0.031 TIME LEFT:  2.00D  GRAD.:     2.320 HEAT: -69.94149
 CYCLE:   258 TIME:   0.031 TIME LEFT:  2.00D  GRAD.:     2.444 HEAT: -69.94576
 CYCLE:   259 TIME:   0.023 TIME LEFT:  2.00D  GRAD.:     2.854 HEAT: -69.95086
 CYCLE:   260 TIME:   0.031 TIME LEFT:  2.00D  GRAD.:     2.380 HEAT: -69.95714
 CYCLE:   261 TIME:   0.039 TIME LEFT:  2.00D  GRAD.:     3.097 HEAT: -69.96318
 CYCLE:   262 TIME:   0.023 TIME LEFT:  2.00D  GRAD.:     3.739 HEAT: -69.96560
 CYCLE:   263 TIME:   0.031 TIME LEFT:  2.00D  GRAD.:     1.817 HEAT: -69.96922
 CYCLE:   264 TIME:   0.031 TIME LEFT:  2.00D  GRAD.:     1.537 HEAT: -69.97172
 CYCLE:   265 TIME:   0.031 TIME LEFT:  2.00D  GRAD.:     1.850 HEAT: -69.97549
 CYCLE:   266 TIME:   0.031 TIME LEFT:  2.00D  GRAD.:     3.291 HEAT: -69.98554
 CYCLE:   267 TIME:   0.031 TIME LEFT:  2.00D  GRAD.:     9.161 HEAT: -69.97704
 CYCLE:   268 TIME:   0.023 TIME LEFT:  2.00D  GRAD.:     2.134 HEAT: -69.99303
 CYCLE:   269 TIME:   0.031 TIME LEFT:  2.00D  GRAD.:     1.459 HEAT: -69.99547
 CYCLE:   270 TIME:   0.031 TIME LEFT:  2.00D  GRAD.:     1.684 HEAT: -70.00029
 CYCLE:   271 TIME:   0.031 TIME LEFT:  2.00D  GRAD.:     2.226 HEAT: -70.00422
 CYCLE:   272 TIME:   0.031 TIME LEFT:  2.00D  GRAD.:     3.721 HEAT: -70.00489
 CYCLE:   273 TIME:   0.031 TIME LEFT:  2.00D  GRAD.:     1.141 HEAT: -70.00866
 CYCLE:   274 TIME:   0.031 TIME LEFT:  2.00D  GRAD.:     1.109 HEAT: -70.00963
 CYCLE:   275 TIME:   0.031 TIME LEFT:  2.00D  GRAD.:     1.140 HEAT: -70.01164
 CYCLE:   276 TIME:   0.031 TIME LEFT:  2.00D  GRAD.:     4.680 HEAT: -70.01140
 CYCLE:   277 TIME:   0.031 TIME LEFT:  2.00D  GRAD.:     1.252 HEAT: -70.01578
 CYCLE:   278 TIME:   0.031 TIME LEFT:  2.00D  GRAD.:     0.983 HEAT: -70.01649

 -------------------------------------------------------------------------------
 PM7 XYZ

 Lipophilicity_1810 - geometry optimisation


     HERBERTS TEST WAS SATISFIED IN BFGS                      
     SCF FIELD WAS ACHIEVED                                   


                              PM7 CALCULATION
                                                       MOPAC v23.0.3 Linux
                                                       Fri Jul 25 18:16:48 2025




          FINAL HEAT OF FORMATION =        -70.01649 KCAL/MOL =    -292.94901 KJ/MOL


          COSMO AREA              =        341.55 SQUARE ANGSTROMS
          COSMO VOLUME            =        400.44 CUBIC ANGSTROMS

          GRADIENT NORM           =          0.98261          =       0.14488 PER ATOM
          IONIZATION POTENTIAL    =          8.922106 EV
          HOMO LUMO ENERGIES (EV) =         -8.922 -0.306
          NO. OF FILLED LEVELS    =         67
          MOLECULAR WEIGHT        =        347.3730         POINT GROUP:  C1  

          MOLECULAR DIMENSIONS (Angstroms)

            Atom       Atom       Distance
            H    45    H    35    11.19508
            H    37    H    34     9.49707
            H    41    H    27     5.72345


          SCF CALCULATIONS        =        279

          WALL-CLOCK TIME         =      9.055 SECONDS
          COMPUTATION TIME        =          3 MINUTES AND 0.361 SECONDS




   ATOM   CHEMICAL          X               Y               Z
  NUMBER   SYMBOL      (ANGSTROMS)     (ANGSTROMS)     (ANGSTROMS)

     1       C         -1.98608335  *   2.03297664  *   0.50228703  *
     2       C         -2.95886037  *   1.20572027  *   1.32023669  *
     3       O         -3.73371292  *   0.37860969  *   0.44812289  *
     4       C         -3.33960537  *  -0.97003176  *   0.50175976  *
     5       C         -2.44827674  *  -1.16063890  *   1.75467084  *
     6       O         -3.22832790  *  -1.95998162  *   2.61337342  *
     7       C         -2.26186876  *   0.26886175  *   2.33128006  *
     8       O         -2.84710662  *   0.37146113  *   3.60084722  *
     9       N         -2.66562605  *  -1.30313124  *  -0.74634210  *
    10       C         -3.34675816  *  -1.65178405  *  -1.95393767  *
    11       N         -2.51855109  *  -1.73615290  *  -2.98534837  *
    12       C         -1.25202489  *  -1.41106170  *  -2.50029181  *
    13       C          0.02832563  *  -1.32008473  *  -3.10843194  *
    14       N          0.23793053  *  -1.57072202  *  -4.42526341  *
    15       N          1.10753048  *  -0.95679350  *  -2.35260976  *
    16       C          0.89822538  *  -0.70592434  *  -1.02840692  *
    17       O          2.02573017  *  -0.33670691  *  -0.40426378  *
    18       C          1.88656969  *   0.05273009  *   0.98272571  *
    19       C          3.15846877  *   0.80152795  *   1.28880308  *
    20       C          4.50595540  *   0.08938973  *   1.23558751  *
    21       C          4.14335132  *   1.09344762  *   0.20644263  *
    22       C          4.15157493  *   1.19108154  *  -1.27626213  *
    23       C          4.73677905  *   2.30285760  *  -0.42433600  *
    24       N         -0.27099000  *  -0.77243338  *  -0.32889351  *
    25       C         -1.33506782  *  -1.11777100  *  -1.09669603  *
    26       H         -1.53834999  *   2.83514928  *   1.09923845  *
    27       H         -2.49255633  *   2.49562553  *  -0.35619311  *
    28       H         -1.16883958  *   1.42522203  *   0.09013947  *
    29       H         -3.73248494  *   1.84126188  *   1.80864857  *
    30       H         -4.29989110  *  -1.55014750  *   0.56274220  *
    31       H         -1.48822797  *  -1.68154524  *   1.55592709  *
    32       H         -2.82051936  *  -1.98897850  *   3.50961953  *
    33       H         -1.19989689  *   0.52693897  *   2.52089617  *
    34       H         -3.80098864  *   0.12680382  *   3.57022913  *
    35       H         -4.41021045  *  -1.83177136  *  -1.97011794  *
    36       H         -0.53151303  *  -1.83731669  *  -5.01026674  *
    37       H          1.15687780  *  -1.50421150  *  -4.81904569  *
    38       H          0.99337956  *   0.69261445  *   1.11500258  *
    39       H          1.77562925  *  -0.87171889  *   1.57766411  *
    40       H          3.01133527  *   1.55910052  *   2.06949654  *
    41       H          4.54486223  *  -0.96361963  *   0.96188347  *
    42       H          5.26081368  *   0.31671892  *   1.98259022  *
    43       H          4.80587635  *   0.54249633  *  -1.85372527  *
    44       H          3.21537743  *   1.34278195  *  -1.81389809  *
    45       H          5.81236284  *   2.45291477  *  -0.39837592  *
    46       H          4.21970240  *   3.25626115  *  -0.35718796  *

                             CARTESIAN COORDINATES

   1    C       -1.986083352     2.032976636     0.502287027
   2    C       -2.958860369     1.205720274     1.320236695
   3    O       -3.733712920     0.378609690     0.448122888
   4    C       -3.339605366    -0.970031761     0.501759757
   5    C       -2.448276736    -1.160638905     1.754670837
   6    O       -3.228327901    -1.959981624     2.613373424
   7    C       -2.261868756     0.268861754     2.331280057
   8    O       -2.847106623     0.371461126     3.600847220
   9    N       -2.665626049    -1.303131237    -0.746342100
  10    C       -3.346758156    -1.651784052    -1.953937668
  11    N       -2.518551090    -1.736152904    -2.985348375
  12    C       -1.252024892    -1.411061703    -2.500291806
  13    C        0.028325629    -1.320084731    -3.108431942
  14    N        0.237930529    -1.570722017    -4.425263407
  15    N        1.107530478    -0.956793499    -2.352609762
  16    C        0.898225383    -0.705924344    -1.028406915
  17    O        2.025730170    -0.336706908    -0.404263779
  18    C        1.886569688     0.052730087     0.982725707
  19    C        3.158468768     0.801527954     1.288803081
  20    C        4.505955396     0.089389726     1.235587510
  21    C        4.143351320     1.093447624     0.206442625
  22    C        4.151574928     1.191081542    -1.276262129
  23    C        4.736779052     2.302857603    -0.424336002
  24    N       -0.270990004    -0.772433379    -0.328893514
  25    C       -1.335067821    -1.117770995    -1.096696027
  26    H       -1.538349990     2.835149277     1.099238455
  27    H       -2.492556331     2.495625529    -0.356193112
  28    H       -1.168839584     1.425222025     0.090139466
  29    H       -3.732484937     1.841261879     1.808648569
  30    H       -4.299891104    -1.550147497     0.562742195
  31    H       -1.488227971    -1.681545237     1.555927091
  32    H       -2.820519365    -1.988978497     3.509619528
  33    H       -1.199896893     0.526938972     2.520896170
  34    H       -3.800988641     0.126803818     3.570229135
  35    H       -4.410210455    -1.831771363    -1.970117939
  36    H       -0.531513029    -1.837316686    -5.010266742
  37    H        1.156877801    -1.504211501    -4.819045688
  38    H        0.993379557     0.692614448     1.115002579
  39    H        1.775629250    -0.871718892     1.577664109
  40    H        3.011335269     1.559100515     2.069496543
  41    H        4.544862233    -0.963619626     0.961883468
  42    H        5.260813676     0.316718924     1.982590219
  43    H        4.805876346     0.542496333    -1.853725271
  44    H        3.215377432     1.342781953    -1.813898094
  45    H        5.812362840     2.452914772    -0.398375915
  46    H        4.219702405     3.256261148    -0.357187958


           Empirical Formula: C16 H21 N5 O4  =    46 atoms



      MOLECULAR POINT GROUP   :   C1  


                  EIGENVALUES  
 -38.78233 -37.97300 -36.89215 -34.27428 -33.81576 -31.59867 -31.50852 -30.74640
 -29.77310 -29.12161 -28.29152 -27.18899 -26.39991 -25.98705 -24.93591 -24.02751
 -23.02769 -22.69315 -21.55022 -21.14027 -21.01305 -20.77354 -20.32109 -19.52720
 -19.02525 -18.52561 -18.22988 -17.93422 -17.34232 -16.88360 -16.68662 -16.54906
 -16.37023 -16.23420 -16.07596 -15.90242 -15.77657 -15.47654 -15.34191 -15.02858
 -14.93172 -14.72954 -14.27985 -14.04451 -13.75356 -13.52548 -13.45115 -13.30948
 -12.85598 -12.74832 -12.67382 -12.63014 -12.30731 -12.24852 -12.09456 -11.67869
 -11.55353 -11.39866 -11.16411 -11.09028 -10.94746 -10.82519 -10.65233 -10.52147
 -10.30449 -10.00519  -8.92211  -0.30553  -0.04153   0.79382   1.00387   1.13386
   1.68647   2.06174   2.14939   2.22842   2.30025   2.50540   2.56345   2.60814
   2.73328   2.93721   3.11780   3.24562   3.47206   3.56530   3.59886   3.83235
   4.02325   4.11743   4.24729   4.26783   4.34485   4.39068   4.44547   4.55814
   4.62461   4.86523   4.96802   5.05591   5.29030   5.32888   5.40043   5.45418
   5.48179   5.56808   5.59460   5.61521   5.64201   5.67213   5.76056   5.77351
   5.85024   5.86383   5.92765   6.28988   6.38888   6.46629   6.62388   6.74334
   6.89426


              NET ATOMIC CHARGES AND DIPOLE CONTRIBUTIONS

  ATOM NO.   TYPE          CHARGE      No. of ELECS.   s-Pop       p-Pop       
    1          C          -0.488171        4.4882     1.05792     3.43025
    2          C           0.091329        3.9087     1.10245     2.80622
    3          O          -0.425713        6.4257     1.88021     4.54550
    4          C           0.273535        3.7265     1.10283     2.62364
    5          C           0.039773        3.9602     1.11454     2.84569
    6          O          -0.549106        6.5491     1.85134     4.69776
    7          C           0.065174        3.9348     1.11089     2.82394
    8          O          -0.544879        6.5449     1.84967     4.69521
    9          N          -0.383525        5.3835     1.56707     3.81645
   10          C           0.134220        3.8658     1.10484     2.76094
   11          N          -0.322611        5.3226     1.75587     3.56674
   12          C          -0.246248        4.2462     1.04181     3.20443
   13          C           0.495336        3.5047     1.04088     2.46379
   14          N          -0.546249        5.5462     1.50723     4.03902
   15          N          -0.593440        5.5934     1.76330     3.83014
   16          C           0.564076        3.4359     1.07311     2.36281
   17          O          -0.238887        6.2389     1.87435     4.36454
   18          C          -0.026823        4.0268     1.09474     2.93208
   19          C          -0.189988        4.1900     1.04884     3.14114
   20          C          -0.316139        4.3161     1.05198     3.26416
   21          C          -0.047642        4.0476     0.99892     3.04872
   22          C          -0.272794        4.2728     1.05045     3.22234
   23          C          -0.319616        4.3196     1.04848     3.27113
   24          N          -0.627821        5.6278     1.76650     3.86132
   25          C           0.344529        3.6555     1.04729     2.60818
   26          H           0.157357        0.8426     0.84264
   27          H           0.166569        0.8334     0.83343
   28          H           0.175575        0.8244     0.82442
   29          H           0.149177        0.8508     0.85082
   30          H           0.175884        0.8241     0.82412
   31          H           0.175615        0.8244     0.82438
   32          H           0.337777        0.6622     0.66222
   33          H           0.167651        0.8323     0.83235
   34          H           0.329352        0.6706     0.67065
   35          H           0.197628        0.8024     0.80237
   36          H           0.328775        0.6712     0.67122
   37          H           0.324916        0.6751     0.67508
   38          H           0.151327        0.8487     0.84867
   39          H           0.148850        0.8511     0.85115
   40          H           0.164891        0.8351     0.83511
   41          H           0.169635        0.8304     0.83037
   42          H           0.157269        0.8427     0.84273
   43          H           0.161832        0.8382     0.83817
   44          H           0.175723        0.8243     0.82428
   45          H           0.157650        0.8424     0.84235
   46          H           0.158230        0.8418     0.84177
 DIPOLE           X         Y         Z       TOTAL
 POINT-CHG.     0.540     0.708     0.553     1.048
 HYBRID        -0.589    -0.161     0.254     0.661
 SUM           -0.049     0.547     0.807     0.976


          ATOMIC ORBITAL ELECTRON POPULATIONS

     Atom    s        px        py        pz   
    1  C   1.05792   1.13718   1.14436   1.14871
    2  C   1.10245   0.97527   0.93057   0.90038
    3  O   1.88021   1.59961   1.25584   1.69005
    4  C   1.10283   0.98774   0.82785   0.80804
    5  C   1.11454   1.00329   0.95316   0.88925
    6  O   1.85134   1.58462   1.73643   1.37671
    7  C   1.11089   1.03761   0.96520   0.82114
    8  O   1.84967   1.40656   1.91585   1.37280
    9  N   1.56707   1.11591   1.52833   1.17222
   10  C   1.10484   1.00340   1.00374   0.75380
   11  N   1.75587   1.05701   1.19790   1.31183
   12  C   1.04181   0.94546   1.28299   0.97598
   13  C   1.04088   0.85898   0.79468   0.81013
   14  N   1.50723   1.22768   1.66828   1.14306
   15  N   1.76330   1.32185   1.39039   1.11790
   16  C   1.07311   0.79270   0.77882   0.79129
   17  O   1.87435   1.28904   1.76505   1.31045
   18  C   1.09474   1.04320   1.09171   0.79717
   19  C   1.04884   0.93637   1.10304   1.10174
   20  C   1.05198   1.05487   1.09483   1.11446
   21  C   0.99892   1.05865   1.03576   0.95430
   22  C   1.05045   1.15766   1.07761   0.98707
   23  C   1.04848   1.13274   1.01495   1.12344
   24  N   1.76650   1.06859   1.42418   1.36855
   25  C   1.04729   0.81498   0.89726   0.89594
   26  H   0.84264
   27  H   0.83343
   28  H   0.82442
   29  H   0.85082
   30  H   0.82412
   31  H   0.82438
   32  H   0.66222
   33  H   0.83235
   34  H   0.67065
   35  H   0.80237
   36  H   0.67122
   37  H   0.67508
   38  H   0.84867
   39  H   0.85115
   40  H   0.83511
   41  H   0.83037
   42  H   0.84273
   43  H   0.83817
   44  H   0.82428
   45  H   0.84235
   46  H   0.84177

 **********************
 *                    *
 * JOB ENDED NORMALLY *
 *                    *
 **********************



 TOTAL JOB TIME:             9.06 SECONDS

 == MOPAC DONE ==
