 *******************************************************************************
 **                                                                           **
 **                              MOPAC v23.0.3                                **
 **                                                                           **
 *******************************************************************************
 **          Digital Object Identifier (DOI): 10.5281/zenodo.6511958          **
 **    Visit the DOI location for information on how to cite this program.    **
 *******************************************************************************

                              PM7 CALCULATION RESULTS

 *******************************************************************************
 *  CALCULATION DONE:                                Fri Jul 25 16:08:44 2025  *
 *  PM7        - The PM7 Hamiltonian to be used
 *  XYZ        - CARTESIAN COORDINATE SYSTEM TO BE USED
 *  T=         - A TIME OF 172800.0 SECONDS REQUESTED
 *  DUMP=N     - RESTART FILE WRITTEN EVERY 7200.0 SECONDS REQUESTED
 *******************************************************************************
PM7 XYZ

 Lipophilicity_1073 - geometry optimisation
   ATOM   CHEMICAL          X               Y               Z
  NUMBER   SYMBOL      (ANGSTROMS)     (ANGSTROMS)     (ANGSTROMS)

     1       C         -2.43021400  *  -0.05215400  *  -2.86533400  *
     2       C         -3.27705800  *  -0.08257900  *  -1.62594400  *
     3       C         -2.74376100  *  -0.37725600  *  -0.35247000  *
     4       C         -1.26334800  *  -0.63278000  *  -0.14288600  *
     5       C         -0.53563000  *   0.66285100  *   0.23739900  *
     6       N          0.92386200  *   0.43445800  *   0.29463100  *
     7       C          1.34117500  *  -0.06620800  *   1.62039400  *
     8       C          2.80509800  *  -0.54749800  *   1.58329900  *
     9       C          3.60413800  *   0.10139500  *   0.43185800  *
    10       C          3.17632100  *   1.56235300  *   0.23627100  *
    11       C          1.65979300  *   1.67598600  *  -0.04109500  *
    12       C          5.08966100  *   0.01411000  *   0.66790200  *
    13       N          5.70407800  *   0.32666400  *   1.83570600  *
    14       O          6.99289300  *   0.21489500  *   1.64788400  *
    15       C          7.24090600  *  -0.13980000  *   0.41168900  *
    16       C          8.47279900  *  -0.35081800  *  -0.20099000  *
    17       C          8.47103100  *  -0.70901800  *  -1.56304000  *
    18       F          9.64629200  *  -0.92087900  *  -2.20507400  *
    19       C          7.25058800  *  -0.84165900  *  -2.26677400  *
    20       C          6.02190700  *  -0.62169000  *  -1.61473700  *
    21       C          6.06345600  *  -0.27627600  *  -0.26473200  *
    22       C         -3.62265500  *  -0.36142800  *   0.75002600  *
    23       O         -3.16921700  *  -0.57177900  *   1.90968000  *
    24       N         -4.95884800  *  -0.11460600  *   0.56762500  *
    25       C         -5.90090400  *  -0.05491400  *   1.70015700  *
    26       C         -7.20498800  *  -0.79941300  *   1.36607700  *
    27       C         -7.75527500  *  -0.50224100  *  -0.05082600  *
    28       C         -6.89274900  *   0.46932500  *  -0.86865100  *
    29       C         -5.43894000  *   0.15322500  *  -0.68266200  *
    30       N         -4.60374300  *   0.17106100  *  -1.75032400  *
    31       H         -1.57173800  *   0.63783600  *  -2.73074300  *
    32       H         -3.02449900  *   0.30386400  *  -3.73387700  *
    33       H         -2.05944000  *  -1.07333700  *  -3.09354600  *
    34       H         -1.12877100  *  -1.39523700  *   0.65257900  *
    35       H         -0.79961400  *  -1.06409400  *  -1.05421100  *
    36       H         -0.78044900  *   1.42515300  *  -0.53717300  *
    37       H         -0.92091300  *   1.05121100  *   1.20774100  *
    38       H          1.23279400  *   0.73720900  *   2.38508500  *
    39       H          0.70337500  *  -0.91648000  *   1.94305000  *
    40       H          3.26903900  *  -0.31859600  *   2.56763000  *
    41       H          2.82992300  *  -1.65179600  *   1.45337300  *
    42       H          3.36185300  *  -0.45344000  *  -0.50150200  *
    43       H          3.74341400  *   2.01297000  *  -0.60820300  *
    44       H          3.42362200  *   2.14143600  *   1.15409700  *
    45       H          1.51761900  *   1.88970400  *  -1.12318700  *
    46       H          1.25234400  *   2.54153500  *   0.53002300  *
    47       H          9.39786700  *  -0.23831800  *   0.34913600  *
    48       H          7.25976500  *  -1.11320400  *  -3.31421700  *
    49       H          5.08550100  *  -0.71786400  *  -2.14761100  *
    50       H         -6.13020300  *   1.00978400  *   1.92402000  *
    51       H         -5.47208800  *  -0.50576700  *   2.62091100  *
    52       H         -7.97232000  *  -0.53889300  *   2.12691200  *
    53       H         -7.01567400  *  -1.89172000  *   1.45469600  *
    54       H         -8.78392100  *  -0.08810000  *   0.02732600  *
    55       H         -7.83398600  *  -1.45954500  *  -0.61199700  *
    56       H         -7.17276000  *   0.40200700  *  -1.94240300  *
    57       H         -7.07740600  *   1.51035300  *  -0.52621800  *



          CARTESIAN COORDINATES 

    NO.       ATOM           X           Y           Z

     1         C         -2.4302     -0.0522     -2.8653
     2         C         -3.2771     -0.0826     -1.6259
     3         C         -2.7438     -0.3773     -0.3525
     4         C         -1.2633     -0.6328     -0.1429
     5         C         -0.5356      0.6629      0.2374
     6         N          0.9239      0.4345      0.2946
     7         C          1.3412     -0.0662      1.6204
     8         C          2.8051     -0.5475      1.5833
     9         C          3.6041      0.1014      0.4319
    10         C          3.1763      1.5624      0.2363
    11         C          1.6598      1.6760     -0.0411
    12         C          5.0897      0.0141      0.6679
    13         N          5.7041      0.3267      1.8357
    14         O          6.9929      0.2149      1.6479
    15         C          7.2409     -0.1398      0.4117
    16         C          8.4728     -0.3508     -0.2010
    17         C          8.4710     -0.7090     -1.5630
    18         F          9.6463     -0.9209     -2.2051
    19         C          7.2506     -0.8417     -2.2668
    20         C          6.0219     -0.6217     -1.6147
    21         C          6.0635     -0.2763     -0.2647
    22         C         -3.6227     -0.3614      0.7500
    23         O         -3.1692     -0.5718      1.9097
    24         N         -4.9588     -0.1146      0.5676
    25         C         -5.9009     -0.0549      1.7002
    26         C         -7.2050     -0.7994      1.3661
    27         C         -7.7553     -0.5022     -0.0508
    28         C         -6.8927      0.4693     -0.8687
    29         C         -5.4389      0.1532     -0.6827
    30         N         -4.6037      0.1711     -1.7503
    31         H         -1.5717      0.6378     -2.7307
    32         H         -3.0245      0.3039     -3.7339
    33         H         -2.0594     -1.0733     -3.0935
    34         H         -1.1288     -1.3952      0.6526
    35         H         -0.7996     -1.0641     -1.0542
    36         H         -0.7804      1.4252     -0.5372
    37         H         -0.9209      1.0512      1.2077
    38         H          1.2328      0.7372      2.3851
    39         H          0.7034     -0.9165      1.9430
    40         H          3.2690     -0.3186      2.5676
    41         H          2.8299     -1.6518      1.4534
    42         H          3.3619     -0.4534     -0.5015
    43         H          3.7434      2.0130     -0.6082
    44         H          3.4236      2.1414      1.1541
    45         H          1.5176      1.8897     -1.1232
    46         H          1.2523      2.5415      0.5300
    47         H          9.3979     -0.2383      0.3491
    48         H          7.2598     -1.1132     -3.3142
    49         H          5.0855     -0.7179     -2.1476
    50         H         -6.1302      1.0098      1.9240
    51         H         -5.4721     -0.5058      2.6209
    52         H         -7.9723     -0.5389      2.1269
    53         H         -7.0157     -1.8917      1.4547
    54         H         -8.7839     -0.0881      0.0273
    55         H         -7.8340     -1.4595     -0.6120
    56         H         -7.1728      0.4020     -1.9424
    57         H         -7.0774      1.5104     -0.5262

 General Reference for PM7:
 "Optimization of Parameters for Semiempirical Methods VI: More Modifications to the 
 NDDO Approximations and Re-optimization of Parameters", J. J. P. Stewart, J. Mol. Mod., 1:32, 19 (2013)
 https://link.springer.com/article/10.1007/s00894-012-1667-x

           Empirical Formula: C23 H27 N4 O2 F  =    57 atoms



      MOLECULAR POINT GROUP   :   C1  


      RHF CALCULATION, NO. OF DOUBLY OCCUPIED LEVELS = 79


          Geometry optimization using L-BFGS
 CYCLE:     1 TIME:   0.082 TIME LEFT:  2.00D  GRAD.:   321.796 HEAT: -23.82063
 CYCLE:     2 TIME:   0.043 TIME LEFT:  2.00D  GRAD.:   313.432 HEAT: -24.84299
 CYCLE:     3 TIME:   0.059 TIME LEFT:  2.00D  GRAD.:    63.920 HEAT: -46.29223
 CYCLE:     4 TIME:   0.055 TIME LEFT:  2.00D  GRAD.:   313.618 HEAT: -24.84330
 CYCLE:     5 TIME:   0.055 TIME LEFT:  2.00D  GRAD.:    63.830 HEAT: -46.29549
 CYCLE:     6 TIME:   0.047 TIME LEFT:  2.00D  GRAD.:    37.363 HEAT: -47.50028
 CYCLE:     7 TIME:   0.047 TIME LEFT:  2.00D  GRAD.:    29.810 HEAT: -48.24195
 CYCLE:     8 TIME:   0.047 TIME LEFT:  2.00D  GRAD.:    33.239 HEAT: -48.94408
 CYCLE:     9 TIME:   0.043 TIME LEFT:  2.00D  GRAD.:    29.203 HEAT: -49.31627
 CYCLE:    10 TIME:   0.043 TIME LEFT:  2.00D  GRAD.:    13.381 HEAT: -49.52609
 CYCLE:    11 TIME:   0.043 TIME LEFT:  2.00D  GRAD.:    11.046 HEAT: -49.63774
 CYCLE:    12 TIME:   0.043 TIME LEFT:  2.00D  GRAD.:    11.085 HEAT: -49.74629
 CYCLE:    13 TIME:   0.043 TIME LEFT:  2.00D  GRAD.:    19.323 HEAT: -49.82584
 CYCLE:    14 TIME:   0.043 TIME LEFT:  2.00D  GRAD.:     7.035 HEAT: -49.90959
 CYCLE:    15 TIME:   0.043 TIME LEFT:  2.00D  GRAD.:     5.671 HEAT: -49.93687
 CYCLE:    16 TIME:   0.043 TIME LEFT:  2.00D  GRAD.:     7.112 HEAT: -49.99017
 CYCLE:    17 TIME:   0.043 TIME LEFT:  2.00D  GRAD.:    14.083 HEAT: -50.02261
 CYCLE:    18 TIME:   0.043 TIME LEFT:  2.00D  GRAD.:     7.158 HEAT: -50.06756
 CYCLE:    19 TIME:   0.043 TIME LEFT:  2.00D  GRAD.:     5.546 HEAT: -50.10678
 CYCLE:    20 TIME:   0.043 TIME LEFT:  2.00D  GRAD.:     6.866 HEAT: -50.13638
 CYCLE:    21 TIME:   0.043 TIME LEFT:  2.00D  GRAD.:     8.718 HEAT: -50.19277
 CYCLE:    22 TIME:   0.043 TIME LEFT:  2.00D  GRAD.:    15.224 HEAT: -50.20262
 CYCLE:    23 TIME:   0.043 TIME LEFT:  2.00D  GRAD.:     5.393 HEAT: -50.24690
 CYCLE:    24 TIME:   0.043 TIME LEFT:  2.00D  GRAD.:     4.042 HEAT: -50.25989
 CYCLE:    25 TIME:   0.043 TIME LEFT:  2.00D  GRAD.:     5.224 HEAT: -50.28303
 CYCLE:    26 TIME:   0.043 TIME LEFT:  2.00D  GRAD.:     8.160 HEAT: -50.30673
 CYCLE:    27 TIME:   0.043 TIME LEFT:  2.00D  GRAD.:     5.695 HEAT: -50.33521
 CYCLE:    28 TIME:   0.047 TIME LEFT:  2.00D  GRAD.:     4.104 HEAT: -50.35859
 CYCLE:    29 TIME:   0.043 TIME LEFT:  2.00D  GRAD.:     6.027 HEAT: -50.37409
 CYCLE:    30 TIME:   0.043 TIME LEFT:  2.00D  GRAD.:     4.514 HEAT: -50.38663
 CYCLE:    31 TIME:   0.043 TIME LEFT:  2.00D  GRAD.:     3.636 HEAT: -50.39934
 CYCLE:    32 TIME:   0.043 TIME LEFT:  2.00D  GRAD.:     4.328 HEAT: -50.41773
 CYCLE:    33 TIME:   0.043 TIME LEFT:  2.00D  GRAD.:     8.163 HEAT: -50.42866
 CYCLE:    34 TIME:   0.043 TIME LEFT:  2.00D  GRAD.:     4.395 HEAT: -50.44479
 CYCLE:    35 TIME:   0.043 TIME LEFT:  2.00D  GRAD.:     3.375 HEAT: -50.46111
 CYCLE:    36 TIME:   0.043 TIME LEFT:  2.00D  GRAD.:     3.888 HEAT: -50.47473
 CYCLE:    37 TIME:   0.043 TIME LEFT:  2.00D  GRAD.:     8.548 HEAT: -50.48862
 CYCLE:    38 TIME:   0.043 TIME LEFT:  2.00D  GRAD.:     3.753 HEAT: -50.50539
 CYCLE:    39 TIME:   0.039 TIME LEFT:  2.00D  GRAD.:     2.712 HEAT: -50.51446
 CYCLE:    40 TIME:   0.043 TIME LEFT:  2.00D  GRAD.:     3.226 HEAT: -50.52285
 CYCLE:    41 TIME:   0.043 TIME LEFT:  2.00D  GRAD.:     4.827 HEAT: -50.52963
 CYCLE:    42 TIME:   0.047 TIME LEFT:  2.00D  GRAD.:     2.833 HEAT: -50.53735
 CYCLE:    43 TIME:   0.043 TIME LEFT:  2.00D  GRAD.:     2.699 HEAT: -50.54572
 CYCLE:    44 TIME:   0.043 TIME LEFT:  2.00D  GRAD.:     3.348 HEAT: -50.55286
 CYCLE:    45 TIME:   0.055 TIME LEFT:  2.00D  GRAD.:     7.702 HEAT: -50.55907
 CYCLE:    46 TIME:   0.043 TIME LEFT:  2.00D  GRAD.:     3.213 HEAT: -50.57143
 CYCLE:    47 TIME:   0.043 TIME LEFT:  2.00D  GRAD.:     2.666 HEAT: -50.57835
 CYCLE:    48 TIME:   0.043 TIME LEFT:  2.00D  GRAD.:     3.038 HEAT: -50.58501
 CYCLE:    49 TIME:   0.047 TIME LEFT:  2.00D  GRAD.:     3.408 HEAT: -50.59685
 CYCLE:    50 TIME:   0.047 TIME LEFT:  2.00D  GRAD.:     8.659 HEAT: -50.60100
 CYCLE:    51 TIME:   0.043 TIME LEFT:  2.00D  GRAD.:     3.941 HEAT: -50.61639
 CYCLE:    52 TIME:   0.043 TIME LEFT:  2.00D  GRAD.:     2.279 HEAT: -50.62370
 CYCLE:    53 TIME:   0.043 TIME LEFT:  2.00D  GRAD.:     2.441 HEAT: -50.63018
 CYCLE:    54 TIME:   0.043 TIME LEFT:  2.00D  GRAD.:     2.975 HEAT: -50.63560
 CYCLE:    55 TIME:   0.047 TIME LEFT:  2.00D  GRAD.:     2.933 HEAT: -50.64392
 CYCLE:    56 TIME:   0.043 TIME LEFT:  2.00D  GRAD.:     6.892 HEAT: -50.64744
 CYCLE:    57 TIME:   0.043 TIME LEFT:  2.00D  GRAD.:     2.370 HEAT: -50.65658
 CYCLE:    58 TIME:   0.043 TIME LEFT:  2.00D  GRAD.:     1.908 HEAT: -50.65978
 CYCLE:    59 TIME:   0.043 TIME LEFT:  2.00D  GRAD.:     2.072 HEAT: -50.66422
 CYCLE:    60 TIME:   0.043 TIME LEFT:  2.00D  GRAD.:     6.239 HEAT: -50.66841
 CYCLE:    61 TIME:   0.043 TIME LEFT:  2.00D  GRAD.:     2.603 HEAT: -50.67604
 CYCLE:    62 TIME:   0.043 TIME LEFT:  2.00D  GRAD.:     2.137 HEAT: -50.68043
 CYCLE:    63 TIME:   0.043 TIME LEFT:  2.00D  GRAD.:     2.183 HEAT: -50.68825
 CYCLE:    64 TIME:   0.047 TIME LEFT:  2.00D  GRAD.:     7.380 HEAT: -50.68920
 CYCLE:    65 TIME:   0.043 TIME LEFT:  2.00D  GRAD.:     2.370 HEAT: -50.69829
 CYCLE:    66 TIME:   0.043 TIME LEFT:  2.00D  GRAD.:     1.730 HEAT: -50.70163
 CYCLE:    67 TIME:   0.043 TIME LEFT:  2.00D  GRAD.:     1.753 HEAT: -50.70621
 CYCLE:    68 TIME:   0.047 TIME LEFT:  2.00D  GRAD.:     2.238 HEAT: -50.71293
 CYCLE:    69 TIME:   0.047 TIME LEFT:  2.00D  GRAD.:     6.925 HEAT: -50.70799
 CYCLE:    70 TIME:   0.070 TIME LEFT:  2.00D  GRAD.:     1.212 HEAT: -50.71802
 CYCLE:    71 TIME:   0.051 TIME LEFT:  2.00D  GRAD.:     1.021 HEAT: -50.71890
 CYCLE:    72 TIME:   0.051 TIME LEFT:  2.00D  GRAD.:     2.101 HEAT: -50.72204
 CYCLE:    73 TIME:   0.043 TIME LEFT:  2.00D  GRAD.:     3.570 HEAT: -50.72188
 CYCLE:    74 TIME:   0.043 TIME LEFT:  2.00D  GRAD.:     1.133 HEAT: -50.72402
 CYCLE:    75 TIME:   0.043 TIME LEFT:  2.00D  GRAD.:     0.814 HEAT: -50.72459

 -------------------------------------------------------------------------------
 PM7 XYZ

 Lipophilicity_1073 - geometry optimisation


     HERBERTS TEST WAS SATISFIED IN BFGS                      
     SCF FIELD WAS ACHIEVED                                   


                              PM7 CALCULATION
                                                       MOPAC v23.0.3 Linux
                                                       Fri Jul 25 16:08:47 2025




          FINAL HEAT OF FORMATION =        -50.72459 KCAL/MOL =    -212.23168 KJ/MOL


          COSMO AREA              =        425.85 SQUARE ANGSTROMS
          COSMO VOLUME            =        491.97 CUBIC ANGSTROMS

          GRADIENT NORM           =          0.81436          =       0.10786 PER ATOM
          IONIZATION POTENTIAL    =          8.686801 EV
          HOMO LUMO ENERGIES (EV) =         -8.687 -0.793
          NO. OF FILLED LEVELS    =         79
          MOLECULAR WEIGHT        =        410.4903         POINT GROUP:  C1  

          MOLECULAR DIMENSIONS (Angstroms)

            Atom       Atom       Distance
            H    54    F    18    18.43194
            H    40    H    32     6.98207
            H    53    H    46     4.88091


          SCF CALCULATIONS        =         76

          WALL-CLOCK TIME         =      3.441 SECONDS
          COMPUTATION TIME        =          1 MINUTE AND 8.634 SECONDS




   ATOM   CHEMICAL          X               Y               Z
  NUMBER   SYMBOL      (ANGSTROMS)     (ANGSTROMS)     (ANGSTROMS)

     1       C         -2.44738357  *  -0.10534424  *  -2.83658036  *
     2       C         -3.24385967  *  -0.10940400  *  -1.57702371  *
     3       C         -2.70637005  *  -0.36111023  *  -0.33873162  *
     4       C         -1.26157330  *  -0.62941368  *  -0.10396548  *
     5       C         -0.55032943  *   0.70584853  *   0.21750283  *
     6       N          0.90974277  *   0.45583051  *   0.28029391  *
     7       C          1.31262957  *  -0.03693514  *   1.61870906  *
     8       C          2.76207666  *  -0.56749256  *   1.57104422  *
     9       C          3.56147856  *   0.13346396  *   0.45801072  *
    10       C          3.12993806  *   1.60727404  *   0.36233227  *
    11       C          1.66192743  *   1.68118186  *  -0.09783253  *
    12       C          5.02888369  *   0.05823634  *   0.69348318  *
    13       N          5.64176668  *   0.30426126  *   1.83764264  *
    14       O          7.01775291  *   0.17079185  *   1.68720601  *
    15       C          7.25696150  *  -0.17295572  *   0.37603445  *
    16       C          8.49011463  *  -0.39884350  *  -0.22002938  *
    17       C          8.41964452  *  -0.72944370  *  -1.57016228  *
    18       F          9.55356867  *  -0.95622960  *  -2.21295103  *
    19       C          7.22253268  *  -0.83922967  *  -2.30284963  *
    20       C          6.00794116  *  -0.60561686  *  -1.67059248  *
    21       C          6.02680353  *  -0.26649925  *  -0.32215936  *
    22       C         -3.54676643  *  -0.34528100  *   0.84001391  *
    23       O         -3.22311043  *  -0.55142892  *   1.98963033  *
    24       N         -4.91966553  *  -0.02879808  *   0.59066944  *
    25       C         -5.89637217  *  -0.00776895  *   1.68915677  *
    26       C         -7.12156103  *  -0.86057060  *   1.32050944  *
    27       C         -7.68908076  *  -0.52806203  *  -0.07004092  *
    28       C         -6.84423426  *   0.49395291  *  -0.84382379  *
    29       C         -5.38219860  *   0.19294935  *  -0.69161730  *
    30       N         -4.58840572  *   0.16509610  *  -1.74740070  *
    31       H         -1.56658302  *   0.54949555  *  -2.75567090  *
    32       H         -3.04321579  *   0.24325506  *  -3.69690668  *
    33       H         -2.08737405  *  -1.11722036  *  -3.07999039  *
    34       H         -1.12324119  *  -1.34711939  *   0.73357392  *
    35       H         -0.77594573  *  -1.10991978  *  -0.97715397  *
    36       H         -0.77170877  *   1.43490272  *  -0.59047941  *
    37       H         -0.96140464  *   1.13360431  *   1.15667362  *
    38       H          1.22142582  *   0.74544463  *   2.40229950  *
    39       H          0.62669559  *  -0.86232817  *   1.91169179  *
    40       H          3.24109292  *  -0.41183457  *   2.55690695  *
    41       H          2.76397307  *  -1.65850595  *   1.39543397  *
    42       H          3.31587828  *  -0.37082231  *  -0.51594783  *
    43       H          3.77529287  *   2.16289478  *  -0.34047052  *
    44       H          3.25630742  *   2.09852563  *   1.34633164  *
    45       H          1.61700465  *   1.73755114  *  -1.20905933  *
    46       H          1.19973458  *   2.61037282  *   0.29733312  *
    47       H          9.42486747  *  -0.32117660  *   0.32647731  *
    48       H          7.25147935  *  -1.10541595  *  -3.35854115  *
    49       H          5.06497844  *  -0.68425670  *  -2.21219404  *
    50       H         -6.19126163  *   1.04632312  *   1.89397415  *
    51       H         -5.41387776  *  -0.39348102  *   2.62172022  *
    52       H         -7.90006213  *  -0.72950793  *   2.09542435  *
    53       H         -6.84118155  *  -1.93287485  *   1.35940653  *
    54       H         -8.72476318  *  -0.14865277  *   0.02017898  *
    55       H         -7.76748458  *  -1.45995703  *  -0.66617786  *
    56       H         -7.12524618  *   0.49645929  *  -1.92083905  *
    57       H         -7.04823133  *   1.52578850  *  -0.48372292  *

                             CARTESIAN COORDINATES

   1    C       -2.447383573    -0.105344235    -2.836580357
   2    C       -3.243859667    -0.109403996    -1.577023714
   3    C       -2.706370050    -0.361110226    -0.338731621
   4    C       -1.261573298    -0.629413684    -0.103965481
   5    C       -0.550329425     0.705848528     0.217502825
   6    N        0.909742768     0.455830514     0.280293913
   7    C        1.312629568    -0.036935137     1.618709064
   8    C        2.762076663    -0.567492559     1.571044221
   9    C        3.561478555     0.133463956     0.458010723
  10    C        3.129938063     1.607274039     0.362332270
  11    C        1.661927429     1.681181864    -0.097832526
  12    C        5.028883690     0.058236335     0.693483176
  13    N        5.641766679     0.304261260     1.837642637
  14    O        7.017752911     0.170791848     1.687206012
  15    C        7.256961500    -0.172955717     0.376034448
  16    C        8.490114627    -0.398843504    -0.220029381
  17    C        8.419644520    -0.729443703    -1.570162280
  18    F        9.553568674    -0.956229598    -2.212951028
  19    C        7.222532678    -0.839229667    -2.302849628
  20    C        6.007941162    -0.605616861    -1.670592481
  21    C        6.026803529    -0.266499247    -0.322159359
  22    C       -3.546766432    -0.345281004     0.840013912
  23    O       -3.223110428    -0.551428919     1.989630328
  24    N       -4.919665528    -0.028798085     0.590669437
  25    C       -5.896372173    -0.007768948     1.689156766
  26    C       -7.121561031    -0.860570599     1.320509444
  27    C       -7.689080763    -0.528062035    -0.070040916
  28    C       -6.844234259     0.493952911    -0.843823789
  29    C       -5.382198597     0.192949352    -0.691617298
  30    N       -4.588405719     0.165096100    -1.747400700
  31    H       -1.566583018     0.549495545    -2.755670905
  32    H       -3.043215788     0.243255064    -3.696906683
  33    H       -2.087374045    -1.117220364    -3.079990386
  34    H       -1.123241192    -1.347119390     0.733573923
  35    H       -0.775945726    -1.109919779    -0.977153966
  36    H       -0.771708768     1.434902722    -0.590479409
  37    H       -0.961404635     1.133604312     1.156673617
  38    H        1.221425822     0.745444635     2.402299497
  39    H        0.626695587    -0.862328168     1.911691792
  40    H        3.241092924    -0.411834573     2.556906953
  41    H        2.763973070    -1.658505952     1.395433966
  42    H        3.315878279    -0.370822314    -0.515947832
  43    H        3.775292871     2.162894784    -0.340470516
  44    H        3.256307416     2.098525626     1.346331638
  45    H        1.617004648     1.737551143    -1.209059328
  46    H        1.199734585     2.610372821     0.297333119
  47    H        9.424867474    -0.321176597     0.326477312
  48    H        7.251479350    -1.105415946    -3.358541146
  49    H        5.064978445    -0.684256704    -2.212194045
  50    H       -6.191261629     1.046323122     1.893974152
  51    H       -5.413877762    -0.393481021     2.621720220
  52    H       -7.900062125    -0.729507932     2.095424351
  53    H       -6.841181548    -1.932874849     1.359406528
  54    H       -8.724763176    -0.148652772     0.020178975
  55    H       -7.767484579    -1.459957033    -0.666177861
  56    H       -7.125246179     0.496459286    -1.920839047
  57    H       -7.048231326     1.525788503    -0.483722916


           Empirical Formula: C23 H27 N4 O2 F  =    57 atoms



      MOLECULAR POINT GROUP   :   C1  


                  EIGENVALUES  
 -41.41594 -38.13369 -35.64539 -35.07917 -35.06479 -31.06872 -30.71239 -30.10847
 -29.36600 -28.82442 -28.26747 -26.92347 -26.59759 -26.25772 -26.15785 -25.58205
 -24.97042 -23.59198 -22.72500 -22.23145 -22.14271 -21.76335 -21.54678 -21.37540
 -20.60086 -20.14591 -18.90421 -18.80935 -18.45938 -18.15060 -17.77346 -17.51781
 -17.38212 -16.99574 -16.95151 -16.59852 -16.26226 -16.20948 -15.98131 -15.85845
 -15.66436 -15.53749 -15.35126 -15.24720 -14.86889 -14.78800 -14.62173 -14.50123
 -14.35743 -14.31631 -13.98248 -13.90622 -13.73954 -13.68710 -13.57563 -13.37924
 -13.11746 -13.05491 -13.02827 -12.83356 -12.81494 -12.67988 -12.64836 -12.55575
 -12.29364 -12.13114 -11.86826 -11.83110 -11.53496 -11.44558 -11.29602 -11.06485
 -10.78044 -10.54376 -10.51296  -9.95730  -9.76483  -9.18923  -8.68680  -0.79301
  -0.37496  -0.31302   0.59754   0.70172   0.83392   1.23503   1.90426   2.20943
   2.59684   2.65174   2.70658   2.85109   2.90566   3.30080   3.32214   3.36631
   3.43726   3.49509   3.70227   3.79992   3.86490   3.91513   3.96659   4.11584
   4.13909   4.24932   4.35705   4.43931   4.45948   4.50555   4.52699   4.55705
   4.60273   4.65037   4.88920   4.96004   5.03295   5.13936   5.15387   5.19362
   5.30620   5.33768   5.37622   5.41667   5.43391   5.46183   5.52221   5.63009
   5.67054   5.69842   5.74917   5.79566   5.81521   5.85463   5.87961   5.94229
   5.98099   6.00636   6.11165   6.14097   6.20581   6.27600   6.39485   6.48740
   6.63092   6.64221   6.87822


              NET ATOMIC CHARGES AND DIPOLE CONTRIBUTIONS

  ATOM NO.   TYPE          CHARGE      No. of ELECS.   s-Pop       p-Pop       
    1          C          -0.445621        4.4456     1.05114     3.39448
    2          C           0.301096        3.6989     1.07621     2.62269
    3          C          -0.315772        4.3158     1.06832     3.24745
    4          C          -0.236895        4.2369     1.05180     3.18510
    5          C          -0.110280        4.1103     1.07037     3.03991
    6          N          -0.429746        5.4297     1.69059     3.73915
    7          C          -0.101564        4.1016     1.06819     3.03337
    8          C          -0.279014        4.2790     1.06619     3.21283
    9          C          -0.083109        4.0831     1.05449     3.02862
   10          C          -0.288858        4.2889     1.06574     3.22312
   11          C          -0.108391        4.1084     1.06988     3.03851
   12          C           0.100230        3.8998     1.09698     2.80279
   13          N          -0.223530        5.2235     1.81627     3.40726
   14          O           0.018861        5.9811     1.91835     4.06279
   15          C           0.117156        3.8828     1.10234     2.78051
   16          C          -0.290229        4.2902     1.06968     3.22055
   17          C           0.263785        3.7362     1.10225     2.63396
   18          F          -0.163592        7.1636     1.96618     5.19741
   19          C          -0.275440        4.2754     1.07729     3.19815
   20          C          -0.023188        4.0232     1.08256     2.94063
   21          C          -0.200937        4.2009     1.06746     3.13348
   22          C           0.587490        3.4125     1.08096     2.33155
   23          O          -0.513867        6.5139     1.87984     4.63403
   24          N          -0.464735        5.4647     1.58494     3.87979
   25          C          -0.074464        4.0745     1.06940     3.00507
   26          C          -0.296178        4.2962     1.06472     3.23146
   27          C          -0.257163        4.2572     1.05851     3.19865
   28          C          -0.294089        4.2941     1.06157     3.23252
   29          C           0.411306        3.5887     1.08256     2.50613
   30          N          -0.530078        5.5301     1.75159     3.77849
   31          H           0.170216        0.8298     0.82978
   32          H           0.178316        0.8217     0.82168
   33          H           0.171233        0.8288     0.82877
   34          H           0.165622        0.8344     0.83438
   35          H           0.159774        0.8402     0.84023
   36          H           0.131001        0.8690     0.86900
   37          H           0.129512        0.8705     0.87049
   38          H           0.116760        0.8832     0.88324
   39          H           0.144978        0.8550     0.85502
   40          H           0.155777        0.8442     0.84422
   41          H           0.144097        0.8559     0.85590
   42          H           0.168021        0.8320     0.83198
   43          H           0.141298        0.8587     0.85870
   44          H           0.155094        0.8449     0.84491
   45          H           0.136583        0.8634     0.86342
   46          H           0.114833        0.8852     0.88517
   47          H           0.195691        0.8043     0.80431
   48          H           0.181318        0.8187     0.81868
   49          H           0.165240        0.8348     0.83476
   50          H           0.145889        0.8541     0.85411
   51          H           0.181923        0.8181     0.81808
   52          H           0.150471        0.8495     0.84953
   53          H           0.155446        0.8446     0.84455
   54          H           0.145401        0.8546     0.85460
   55          H           0.149683        0.8503     0.85032
   56          H           0.182931        0.8171     0.81707
   57          H           0.169708        0.8303     0.83029
 DIPOLE           X         Y         Z       TOTAL
 POINT-CHG.    -6.426     0.902    -2.717     7.035
 HYBRID         0.803     0.254     0.730     1.114
 SUM           -5.624     1.156    -1.987     6.075


          ATOMIC ORBITAL ELECTRON POPULATIONS

     Atom    s        px        py        pz   
    1  C   1.05114   1.13769   1.18435   1.07244
    2  C   1.07621   0.84908   0.82074   0.95287
    3  C   1.06832   1.03427   1.23298   0.98021
    4  C   1.05180   0.94935   1.05712   1.17863
    5  C   1.07037   0.86757   1.03422   1.13812
    6  N   1.69059   1.09402   1.32807   1.31706
    7  C   1.06819   1.01199   1.10194   0.91944
    8  C   1.06619   1.01608   1.11196   1.08479
    9  C   1.05449   0.90545   1.02253   1.10065
   10  C   1.06574   1.03323   1.02530   1.16459
   11  C   1.06988   0.96816   0.95961   1.11074
   12  C   1.09698   0.99166   0.92819   0.88295
   13  N   1.81627   0.92232   1.21619   1.26875
   14  O   1.91835   1.12592   1.71546   1.22141
   15  C   1.10234   0.97839   0.92662   0.87550
   16  C   1.06968   1.06623   1.13843   1.01589
   17  C   1.10225   0.83073   0.89504   0.90819
   18  F   1.96618   1.44645   1.93976   1.81121
   19  C   1.07729   0.97763   1.11669   1.10383
   20  C   1.08256   1.05028   0.91032   0.98003
   21  C   1.06746   0.97546   1.14933   1.00869
   22  C   1.08096   0.74971   0.72538   0.85647
   23  O   1.87984   1.78503   1.54961   1.29939
   24  N   1.58494   1.18088   1.56293   1.13599
   25  C   1.06940   0.92724   1.11523   0.96259
   26  C   1.06472   1.06057   1.12334   1.04754
   27  C   1.05851   1.08390   1.09541   1.01933
   28  C   1.06157   0.96614   1.10637   1.16000
   29  C   1.08256   0.93261   0.81923   0.75428
   30  N   1.75159   1.12941   1.32093   1.32815
   31  H   0.82978
   32  H   0.82168
   33  H   0.82877
   34  H   0.83438
   35  H   0.84023
   36  H   0.86900
   37  H   0.87049
   38  H   0.88324
   39  H   0.85502
   40  H   0.84422
   41  H   0.85590
   42  H   0.83198
   43  H   0.85870
   44  H   0.84491
   45  H   0.86342
   46  H   0.88517
   47  H   0.80431
   48  H   0.81868
   49  H   0.83476
   50  H   0.85411
   51  H   0.81808
   52  H   0.84953
   53  H   0.84455
   54  H   0.85460
   55  H   0.85032
   56  H   0.81707
   57  H   0.83029

 **********************
 *                    *
 * JOB ENDED NORMALLY *
 *                    *
 **********************



 TOTAL JOB TIME:             3.45 SECONDS

 == MOPAC DONE ==
