 *******************************************************************************
 **                                                                           **
 **                              MOPAC v23.0.3                                **
 **                                                                           **
 *******************************************************************************
 **          Digital Object Identifier (DOI): 10.5281/zenodo.6511958          **
 **    Visit the DOI location for information on how to cite this program.    **
 *******************************************************************************

                              PM7 CALCULATION RESULTS

 *******************************************************************************
 *  CALCULATION DONE:                                Fri Jul 25 18:37:20 2025  *
 *  PM7        - The PM7 Hamiltonian to be used
 *  XYZ        - CARTESIAN COORDINATE SYSTEM TO BE USED
 *  T=         - A TIME OF 172800.0 SECONDS REQUESTED
 *  DUMP=N     - RESTART FILE WRITTEN EVERY 7200.0 SECONDS REQUESTED
 *******************************************************************************
PM7 XYZ

 Lipophilicity_1923 - geometry optimisation
   ATOM   CHEMICAL          X               Y               Z
  NUMBER   SYMBOL      (ANGSTROMS)     (ANGSTROMS)     (ANGSTROMS)

     1       C         -0.64605800  *  -2.93170300  *   3.86449300  *
     2       O         -1.46780900  *  -2.14616600  *   3.00539100  *
     3       C         -1.01013900  *  -1.45325400  *   1.87140400  *
     4       C          0.34434400  *  -1.46961000  *   1.48228500  *
     5       C          0.76991900  *  -0.76558100  *   0.34054400  *
     6       C          2.11980500  *  -0.72447500  *  -0.07554200  *
     7       N          3.14418600  *  -1.45249700  *   0.62092800  *
     8       C          4.45518400  *  -0.93015700  *   0.88002400  *
     9       C          4.91236500  *   0.34348800  *   0.57994000  *
    10       C          6.18519000  *   0.36838300  *   1.11596900  *
    11       C          7.08627100  *   1.56680000  *   1.16988700  *
    12       C          8.52355800  *   1.18004200  *   0.99034400  *
    13       O          9.30218800  *   1.20865700  *   1.98335800  *
    14       N          8.99339100  *   0.72790900  *  -0.28789200  *
    15       C         10.38592700  *   0.57824700  *  -0.61360300  *
    16       C         10.79123300  *  -0.47494800  *  -1.44867600  *
    17       C         12.13941500  *  -0.62995100  *  -1.78882500  *
    18       C         13.08849900  *   0.28085300  *  -1.32009700  *
    19       C         12.69115300  *   1.34736000  *  -0.50790600  *
    20       F         13.61020500  *   2.23765400  *  -0.06613600  *
    21       C         11.34511100  *   1.49925800  *  -0.15611700  *
    22       N          6.43917200  *  -0.81495900  *   1.70816500  *
    23       N          5.39193900  *  -1.61146500  *   1.57139500  *
    24       N          2.45087900  *  -0.00256000  *  -1.17977400  *
    25       C          1.52124800  *   0.68961900  *  -1.88500400  *
    26       N          0.22169800  *   0.67569000  *  -1.49692600  *
    27       C         -0.17465100  *  -0.03117000  *  -0.40733600  *
    28       C         -1.51769500  *  -0.01594100  *  -0.02174000  *
    29       C         -1.94258000  *  -0.71930900  *   1.12177700  *
    30       O         -3.27375600  *  -0.68476500  *   1.57572600  *
    31       C         -4.36664400  *  -0.05408000  *   0.91032300  *
    32       C         -4.83261500  *  -0.87458100  *  -0.30057800  *
    33       C         -5.92213000  *  -0.13492300  *  -1.08250900  *
    34       N         -7.13272800  *   0.01739200  *  -0.24486100  *
    35       C         -7.63398200  *   1.41504200  *  -0.24796900  *
    36       C         -9.06731100  *   1.50260700  *   0.28804400  *
    37       C        -10.05150100  *   0.68311600  *  -0.59094700  *
    38       C        -10.85250600  *   1.58075000  *  -1.55774800  *
    39       O         -9.99753500  *   2.35238500  *  -2.36185700  *
    40       C         -9.33800900  *  -0.46563700  *  -1.34944800  *
    41       C         -8.16815800  *  -1.01627200  *  -0.51988400  *
    42       H         -0.17334100  *  -3.75770800  *   3.29404200  *
    43       H          0.13562600  *  -2.29464400  *   4.33270200  *
    44       H         -1.27541900  *  -3.37168100  *   4.66639900  *
    45       H          1.05879400  *  -2.01348000  *   2.08423100  *
    46       H          2.93412600  *  -2.41189100  *   0.97487100  *
    47       H          4.38973600  *   1.15771300  *   0.09515700  *
    48       H          6.94804300  *   2.07343300  *   2.14825200  *
    49       H          6.80892500  *   2.28537100  *   0.37029100  *
    50       H          8.28326600  *   0.43412700  *  -0.99916900  *
    51       H         10.06513600  *  -1.18782100  *  -1.82216400  *
    52       H         12.44274700  *  -1.45300400  *  -2.42184300  *
    53       H         14.13003300  *   0.16764000  *  -1.59247400  *
    54       H         11.05111500  *   2.34500700  *   0.45257800  *
    55       H          7.30207800  *  -1.06949600  *   2.24355900  *
    56       H          1.81913100  *   1.25394200  *  -2.75690800  *
    57       H         -2.21613800  *   0.55889400  *  -0.61112400  *
    58       H         -4.09281400  *   0.98470000  *   0.62109300  *
    59       H         -5.20785200  *   0.02211300  *   1.63436800  *
    60       H         -5.22277300  *  -1.85705200  *   0.04159700  *
    61       H         -3.97476100  *  -1.06346700  *  -0.97980300  *
    62       H         -5.50874600  *   0.84850000  *  -1.40124800  *
    63       H         -6.14346400  *  -0.68035300  *  -2.02664100  *
    64       H         -6.97219800  *   2.03471000  *   0.39908500  *
    65       H         -7.61085400  *   1.84762300  *  -1.27414000  *
    66       H         -9.07424300  *   1.09815000  *   1.32480100  *
    67       H         -9.37688300  *   2.56831300  *   0.35181100  *
    68       H        -10.79239200  *   0.21218000  *   0.09428200  *
    69       H        -11.53449600  *   0.95443500  *  -2.18172000  *
    70       H        -11.49584500  *   2.26714400  *  -0.96642700  *
    71       H         -9.90425100  *   1.87927800  *  -3.22812800  *
    72       H        -10.06621200  *  -1.28152600  *  -1.56393700  *
    73       H         -8.93802700  *  -0.11255500  *  -2.32520700  *
    74       H         -7.74122800  *  -1.90872000  *  -1.02758900  *
    75       H         -8.56389500  *  -1.38112200  *   0.45274200  *



          CARTESIAN COORDINATES 

    NO.       ATOM           X           Y           Z

     1         C         -0.6461     -2.9317      3.8645
     2         O         -1.4678     -2.1462      3.0054
     3         C         -1.0101     -1.4533      1.8714
     4         C          0.3443     -1.4696      1.4823
     5         C          0.7699     -0.7656      0.3405
     6         C          2.1198     -0.7245     -0.0755
     7         N          3.1442     -1.4525      0.6209
     8         C          4.4552     -0.9302      0.8800
     9         C          4.9124      0.3435      0.5799
    10         C          6.1852      0.3684      1.1160
    11         C          7.0863      1.5668      1.1699
    12         C          8.5236      1.1800      0.9903
    13         O          9.3022      1.2087      1.9834
    14         N          8.9934      0.7279     -0.2879
    15         C         10.3859      0.5782     -0.6136
    16         C         10.7912     -0.4749     -1.4487
    17         C         12.1394     -0.6300     -1.7888
    18         C         13.0885      0.2809     -1.3201
    19         C         12.6912      1.3474     -0.5079
    20         F         13.6102      2.2377     -0.0661
    21         C         11.3451      1.4993     -0.1561
    22         N          6.4392     -0.8150      1.7082
    23         N          5.3919     -1.6115      1.5714
    24         N          2.4509     -0.0026     -1.1798
    25         C          1.5212      0.6896     -1.8850
    26         N          0.2217      0.6757     -1.4969
    27         C         -0.1747     -0.0312     -0.4073
    28         C         -1.5177     -0.0159     -0.0217
    29         C         -1.9426     -0.7193      1.1218
    30         O         -3.2738     -0.6848      1.5757
    31         C         -4.3666     -0.0541      0.9103
    32         C         -4.8326     -0.8746     -0.3006
    33         C         -5.9221     -0.1349     -1.0825
    34         N         -7.1327      0.0174     -0.2449
    35         C         -7.6340      1.4150     -0.2480
    36         C         -9.0673      1.5026      0.2880
    37         C        -10.0515      0.6831     -0.5909
    38         C        -10.8525      1.5808     -1.5577
    39         O         -9.9975      2.3524     -2.3619
    40         C         -9.3380     -0.4656     -1.3494
    41         C         -8.1682     -1.0163     -0.5199
    42         H         -0.1733     -3.7577      3.2940
    43         H          0.1356     -2.2946      4.3327
    44         H         -1.2754     -3.3717      4.6664
    45         H          1.0588     -2.0135      2.0842
    46         H          2.9341     -2.4119      0.9749
    47         H          4.3897      1.1577      0.0952
    48         H          6.9480      2.0734      2.1483
    49         H          6.8089      2.2854      0.3703
    50         H          8.2833      0.4341     -0.9992
    51         H         10.0651     -1.1878     -1.8222
    52         H         12.4427     -1.4530     -2.4218
    53         H         14.1300      0.1676     -1.5925
    54         H         11.0511      2.3450      0.4526
    55         H          7.3021     -1.0695      2.2436
    56         H          1.8191      1.2539     -2.7569
    57         H         -2.2161      0.5589     -0.6111
    58         H         -4.0928      0.9847      0.6211
    59         H         -5.2079      0.0221      1.6344
    60         H         -5.2228     -1.8571      0.0416
    61         H         -3.9748     -1.0635     -0.9798
    62         H         -5.5087      0.8485     -1.4012
    63         H         -6.1435     -0.6804     -2.0266
    64         H         -6.9722      2.0347      0.3991
    65         H         -7.6109      1.8476     -1.2741
    66         H         -9.0742      1.0981      1.3248
    67         H         -9.3769      2.5683      0.3518
    68         H        -10.7924      0.2122      0.0943
    69         H        -11.5345      0.9544     -2.1817
    70         H        -11.4958      2.2671     -0.9664
    71         H         -9.9043      1.8793     -3.2281
    72         H        -10.0662     -1.2815     -1.5639
    73         H         -8.9380     -0.1126     -2.3252
    74         H         -7.7412     -1.9087     -1.0276
    75         H         -8.5639     -1.3811      0.4527

 General Reference for PM7:
 "Optimization of Parameters for Semiempirical Methods VI: More Modifications to the 
 NDDO Approximations and Re-optimization of Parameters", J. J. P. Stewart, J. Mol. Mod., 1:32, 19 (2013)
 https://link.springer.com/article/10.1007/s00894-012-1667-x

           Empirical Formula: C29 H34 N7 O4 F  =    75 atoms



      MOLECULAR POINT GROUP   :   C1  


      RHF CALCULATION, NO. OF DOUBLY OCCUPIED LEVELS = 108


          Geometry optimization using L-BFGS
 CYCLE:     1 TIME:   0.133 TIME LEFT:  2.00D  GRAD.:   313.290 HEAT: -48.72464
 CYCLE:     2 TIME:   0.078 TIME LEFT:  2.00D  GRAD.:   305.695 HEAT: -49.69443
 CYCLE:     3 TIME:   0.094 TIME LEFT:  2.00D  GRAD.:    80.049 HEAT: -72.33437
 CYCLE:     4 TIME:   0.102 TIME LEFT:  2.00D  GRAD.:   305.746 HEAT: -49.69478
 CYCLE:     5 TIME:   0.094 TIME LEFT:  2.00D  GRAD.:    80.034 HEAT: -72.33513
 CYCLE:     6 TIME:   0.078 TIME LEFT:  2.00D  GRAD.:    62.570 HEAT: -74.51365
 CYCLE:     7 TIME:   0.086 TIME LEFT:  2.00D  GRAD.:    59.441 HEAT: -77.88657
 CYCLE:     8 TIME:   0.078 TIME LEFT:  2.00D  GRAD.:    89.589 HEAT: -80.26589
 CYCLE:     9 TIME:   0.078 TIME LEFT:  2.00D  GRAD.:    38.387 HEAT: -82.36179
 CYCLE:    10 TIME:   0.078 TIME LEFT:  2.00D  GRAD.:    32.630 HEAT: -83.17943
 CYCLE:    11 TIME:   0.078 TIME LEFT:  2.00D  GRAD.:    32.730 HEAT: -84.27639
 CYCLE:    12 TIME:   0.086 TIME LEFT:  2.00D  GRAD.:    63.318 HEAT: -84.78160
 CYCLE:    13 TIME:   0.070 TIME LEFT:  2.00D  GRAD.:    20.053 HEAT: -85.54207
 CYCLE:    14 TIME:   0.078 TIME LEFT:  2.00D  GRAD.:    14.357 HEAT: -85.75477
 CYCLE:    15 TIME:   0.070 TIME LEFT:  2.00D  GRAD.:    16.178 HEAT: -85.96543
 CYCLE:    16 TIME:   0.109 TIME LEFT:  2.00D  GRAD.:    17.341 HEAT: -86.22904
 CYCLE:    17 TIME:   0.078 TIME LEFT:  2.00D  GRAD.:    39.862 HEAT: -86.23577
 CYCLE:    18 TIME:   0.078 TIME LEFT:  2.00D  GRAD.:    11.413 HEAT: -86.56264
 CYCLE:    19 TIME:   0.070 TIME LEFT:  2.00D  GRAD.:    10.106 HEAT: -86.64684
 CYCLE:    20 TIME:   0.078 TIME LEFT:  2.00D  GRAD.:    12.132 HEAT: -86.79930
 CYCLE:    21 TIME:   0.078 TIME LEFT:  2.00D  GRAD.:    23.248 HEAT: -86.93101
 CYCLE:    22 TIME:   0.078 TIME LEFT:  2.00D  GRAD.:    11.206 HEAT: -87.07111
 CYCLE:    23 TIME:   0.070 TIME LEFT:  2.00D  GRAD.:     8.659 HEAT: -87.14918
 CYCLE:    24 TIME:   0.078 TIME LEFT:  2.00D  GRAD.:    12.195 HEAT: -87.25695
 CYCLE:    25 TIME:   0.078 TIME LEFT:  2.00D  GRAD.:    17.381 HEAT: -87.36167
 CYCLE:    26 TIME:   0.078 TIME LEFT:  2.00D  GRAD.:    13.035 HEAT: -87.49007
 CYCLE:    27 TIME:   0.086 TIME LEFT:  2.00D  GRAD.:    14.203 HEAT: -87.69809
 CYCLE:    28 TIME:   0.078 TIME LEFT:  2.00D  GRAD.:    18.976 HEAT: -87.83625
 CYCLE:    29 TIME:   0.070 TIME LEFT:  2.00D  GRAD.:    13.611 HEAT: -87.96674
 CYCLE:    30 TIME:   0.078 TIME LEFT:  2.00D  GRAD.:    13.011 HEAT: -88.17428
 CYCLE:    31 TIME:   0.086 TIME LEFT:  2.00D  GRAD.:    16.178 HEAT: -88.26649
 CYCLE:    32 TIME:   0.078 TIME LEFT:  2.00D  GRAD.:    11.065 HEAT: -88.35301
 CYCLE:    33 TIME:   0.094 TIME LEFT:  2.00D  GRAD.:    11.345 HEAT: -88.48625
 CYCLE:    34 TIME:   0.078 TIME LEFT:  2.00D  GRAD.:    16.894 HEAT: -88.56013
 CYCLE:    35 TIME:   0.086 TIME LEFT:  2.00D  GRAD.:    11.439 HEAT: -88.66453
 CYCLE:    36 TIME:   0.070 TIME LEFT:  2.00D  GRAD.:     7.207 HEAT: -88.73215
 CYCLE:    37 TIME:   0.078 TIME LEFT:  2.00D  GRAD.:     8.555 HEAT: -88.78292
 CYCLE:    38 TIME:   0.078 TIME LEFT:  2.00D  GRAD.:     9.676 HEAT: -88.84207
 CYCLE:    39 TIME:   0.078 TIME LEFT:  2.00D  GRAD.:     9.814 HEAT: -88.89123
 CYCLE:    40 TIME:   0.070 TIME LEFT:  2.00D  GRAD.:     6.427 HEAT: -88.93627
 CYCLE:    41 TIME:   0.078 TIME LEFT:  2.00D  GRAD.:     7.809 HEAT: -88.98684
 CYCLE:    42 TIME:   0.078 TIME LEFT:  2.00D  GRAD.:    10.431 HEAT: -89.03594
 CYCLE:    43 TIME:   0.078 TIME LEFT:  2.00D  GRAD.:     7.615 HEAT: -89.09998
 CYCLE:    44 TIME:   0.078 TIME LEFT:  2.00D  GRAD.:     9.348 HEAT: -89.15223
 CYCLE:    45 TIME:   0.078 TIME LEFT:  2.00D  GRAD.:     7.099 HEAT: -89.19398
 CYCLE:    46 TIME:   0.078 TIME LEFT:  2.00D  GRAD.:     7.055 HEAT: -89.24156
 CYCLE:    47 TIME:   0.086 TIME LEFT:  2.00D  GRAD.:    13.343 HEAT: -89.30458
 CYCLE:    48 TIME:   0.078 TIME LEFT:  2.00D  GRAD.:     7.881 HEAT: -89.36176
 CYCLE:    49 TIME:   0.078 TIME LEFT:  2.00D  GRAD.:     6.805 HEAT: -89.39280
 CYCLE:    50 TIME:   0.078 TIME LEFT:  2.00D  GRAD.:     8.829 HEAT: -89.44855
 CYCLE:    51 TIME:   0.070 TIME LEFT:  2.00D  GRAD.:     8.491 HEAT: -89.49199
 CYCLE:    52 TIME:   0.086 TIME LEFT:  2.00D  GRAD.:     6.495 HEAT: -89.53792
 CYCLE:    53 TIME:   0.078 TIME LEFT:  2.00D  GRAD.:    10.512 HEAT: -89.57677
 CYCLE:    54 TIME:   0.070 TIME LEFT:  2.00D  GRAD.:     7.383 HEAT: -89.61913
 CYCLE:    55 TIME:   0.078 TIME LEFT:  2.00D  GRAD.:     7.329 HEAT: -89.65892
 CYCLE:    56 TIME:   0.078 TIME LEFT:  2.00D  GRAD.:    10.097 HEAT: -89.72761
 CYCLE:    57 TIME:   0.078 TIME LEFT:  2.00D  GRAD.:    17.013 HEAT: -89.79393
 CYCLE:    58 TIME:   0.078 TIME LEFT:  2.00D  GRAD.:     8.311 HEAT: -89.85342
 CYCLE:    59 TIME:   0.070 TIME LEFT:  2.00D  GRAD.:     6.595 HEAT: -89.91017
 CYCLE:    60 TIME:   0.086 TIME LEFT:  2.00D  GRAD.:    11.420 HEAT: -89.95981
 CYCLE:    61 TIME:   0.078 TIME LEFT:  2.00D  GRAD.:    15.041 HEAT: -90.00385
 CYCLE:    62 TIME:   0.086 TIME LEFT:  2.00D  GRAD.:     8.106 HEAT: -90.08057
 CYCLE:    63 TIME:   0.078 TIME LEFT:  2.00D  GRAD.:     7.052 HEAT: -90.13730
 CYCLE:    64 TIME:   0.078 TIME LEFT:  2.00D  GRAD.:     8.665 HEAT: -90.18484
 CYCLE:    65 TIME:   0.078 TIME LEFT:  2.00D  GRAD.:     9.346 HEAT: -90.24962
 CYCLE:    66 TIME:   0.078 TIME LEFT:  2.00D  GRAD.:     9.011 HEAT: -90.29437
 CYCLE:    67 TIME:   0.078 TIME LEFT:  2.00D  GRAD.:     6.417 HEAT: -90.33135
 CYCLE:    68 TIME:   0.078 TIME LEFT:  2.00D  GRAD.:     6.862 HEAT: -90.38291
 CYCLE:    69 TIME:   0.078 TIME LEFT:  2.00D  GRAD.:     9.498 HEAT: -90.42859
 CYCLE:    70 TIME:   0.086 TIME LEFT:  2.00D  GRAD.:     8.368 HEAT: -90.47454
 CYCLE:    71 TIME:   0.078 TIME LEFT:  2.00D  GRAD.:     7.303 HEAT: -90.51114
 CYCLE:    72 TIME:   0.070 TIME LEFT:  2.00D  GRAD.:     5.983 HEAT: -90.54829
 CYCLE:    73 TIME:   0.086 TIME LEFT:  2.00D  GRAD.:     6.475 HEAT: -90.57639
 CYCLE:    74 TIME:   0.070 TIME LEFT:  2.00D  GRAD.:     6.274 HEAT: -90.60824
 CYCLE:    75 TIME:   0.078 TIME LEFT:  2.00D  GRAD.:     6.275 HEAT: -90.63238
 CYCLE:    76 TIME:   0.070 TIME LEFT:  2.00D  GRAD.:     6.324 HEAT: -90.66079
 CYCLE:    77 TIME:   0.078 TIME LEFT:  2.00D  GRAD.:     7.314 HEAT: -90.69924
 CYCLE:    78 TIME:   0.070 TIME LEFT:  2.00D  GRAD.:     8.176 HEAT: -90.73512
 CYCLE:    79 TIME:   0.078 TIME LEFT:  2.00D  GRAD.:     5.682 HEAT: -90.76808
 CYCLE:    80 TIME:   0.070 TIME LEFT:  2.00D  GRAD.:     5.929 HEAT: -90.80911
 CYCLE:    81 TIME:   0.078 TIME LEFT:  2.00D  GRAD.:     9.167 HEAT: -90.84279
 CYCLE:    82 TIME:   0.078 TIME LEFT:  2.00D  GRAD.:     6.562 HEAT: -90.88383
 CYCLE:    83 TIME:   0.078 TIME LEFT:  2.00D  GRAD.:     5.654 HEAT: -90.92155
 CYCLE:    84 TIME:   0.078 TIME LEFT:  2.00D  GRAD.:     7.045 HEAT: -90.95737
 CYCLE:    85 TIME:   0.078 TIME LEFT:  2.00D  GRAD.:    10.623 HEAT: -90.99142
 CYCLE:    86 TIME:   0.078 TIME LEFT:  2.00D  GRAD.:     6.483 HEAT: -91.03490
 CYCLE:    87 TIME:   0.078 TIME LEFT:  2.00D  GRAD.:     6.584 HEAT: -91.07621
 CYCLE:    88 TIME:   0.078 TIME LEFT:  2.00D  GRAD.:     7.970 HEAT: -91.11053
 CYCLE:    89 TIME:   0.078 TIME LEFT:  2.00D  GRAD.:     6.207 HEAT: -91.15035
 CYCLE:    90 TIME:   0.070 TIME LEFT:  2.00D  GRAD.:     7.259 HEAT: -91.17513
 CYCLE:    91 TIME:   0.078 TIME LEFT:  2.00D  GRAD.:     5.455 HEAT: -91.20181
 CYCLE:    92 TIME:   0.070 TIME LEFT:  2.00D  GRAD.:     5.269 HEAT: -91.22747
 CYCLE:    93 TIME:   0.078 TIME LEFT:  2.00D  GRAD.:     6.860 HEAT: -91.25087
 CYCLE:    94 TIME:   0.078 TIME LEFT:  2.00D  GRAD.:     5.434 HEAT: -91.27403
 CYCLE:    95 TIME:   0.086 TIME LEFT:  2.00D  GRAD.:     5.805 HEAT: -91.30306
 CYCLE:    96 TIME:   0.078 TIME LEFT:  2.00D  GRAD.:     8.449 HEAT: -91.33672
 CYCLE:    97 TIME:   0.078 TIME LEFT:  2.00D  GRAD.:     7.004 HEAT: -91.37349
 CYCLE:    98 TIME:   0.078 TIME LEFT:  2.00D  GRAD.:     6.345 HEAT: -91.41732
 CYCLE:    99 TIME:   0.086 TIME LEFT:  2.00D  GRAD.:     8.997 HEAT: -91.45566
 CYCLE:   100 TIME:   0.070 TIME LEFT:  2.00D  GRAD.:     6.716 HEAT: -91.48579
 CYCLE:   101 TIME:   0.078 TIME LEFT:  2.00D  GRAD.:     7.146 HEAT: -91.51764
 CYCLE:   102 TIME:   0.086 TIME LEFT:  2.00D  GRAD.:    10.152 HEAT: -91.57746
 CYCLE:   103 TIME:   0.078 TIME LEFT:  2.00D  GRAD.:    10.268 HEAT: -91.61782
 CYCLE:   104 TIME:   0.078 TIME LEFT:  2.00D  GRAD.:     6.372 HEAT: -91.65956
 CYCLE:   105 TIME:   0.078 TIME LEFT:  2.00D  GRAD.:     6.249 HEAT: -91.69534
 CYCLE:   106 TIME:   0.078 TIME LEFT:  2.00D  GRAD.:     8.697 HEAT: -91.73271
 CYCLE:   107 TIME:   0.078 TIME LEFT:  2.00D  GRAD.:     8.085 HEAT: -91.78960
 CYCLE:   108 TIME:   0.086 TIME LEFT:  2.00D  GRAD.:    11.703 HEAT: -91.83319
 CYCLE:   109 TIME:   0.070 TIME LEFT:  2.00D  GRAD.:     7.267 HEAT: -91.89194
 CYCLE:   110 TIME:   0.070 TIME LEFT:  2.00D  GRAD.:     7.016 HEAT: -91.94233
 CYCLE:   111 TIME:   0.078 TIME LEFT:  2.00D  GRAD.:     9.974 HEAT: -91.98646
 CYCLE:   112 TIME:   0.086 TIME LEFT:  2.00D  GRAD.:     6.537 HEAT: -92.04458
 CYCLE:   113 TIME:   0.078 TIME LEFT:  2.00D  GRAD.:     6.960 HEAT: -92.07647
 CYCLE:   114 TIME:   0.078 TIME LEFT:  2.00D  GRAD.:    11.237 HEAT: -92.10374
 CYCLE:   115 TIME:   0.078 TIME LEFT:  2.00D  GRAD.:     6.575 HEAT: -92.14701
 CYCLE:   116 TIME:   0.070 TIME LEFT:  2.00D  GRAD.:     5.031 HEAT: -92.17870
 CYCLE:   117 TIME:   0.078 TIME LEFT:  2.00D  GRAD.:     5.831 HEAT: -92.20571
 CYCLE:   118 TIME:   0.078 TIME LEFT:  2.00D  GRAD.:     8.877 HEAT: -92.23815
 CYCLE:   119 TIME:   0.086 TIME LEFT:  2.00D  GRAD.:    30.906 HEAT: -92.09950
 CYCLE:   120 TIME:   0.078 TIME LEFT:  2.00D  GRAD.:     6.429 HEAT: -92.30159
 CYCLE:   121 TIME:   0.086 TIME LEFT:  2.00D  GRAD.:     5.029 HEAT: -92.30850
 CYCLE:   122 TIME:   0.078 TIME LEFT:  2.00D  GRAD.:     4.153 HEAT: -92.35735
 CYCLE:   123 TIME:   0.086 TIME LEFT:  2.00D  GRAD.:     9.513 HEAT: -92.37028
 CYCLE:   124 TIME:   0.086 TIME LEFT:  2.00D  GRAD.:    51.741 HEAT: -91.94215
 CYCLE:   125 TIME:   0.086 TIME LEFT:  2.00D  GRAD.:    39.560 HEAT: -92.08956
 CYCLE:   126 TIME:   0.086 TIME LEFT:  2.00D  GRAD.:    12.991 HEAT: -92.37406
 CYCLE:   127 TIME:   0.086 TIME LEFT:  2.00D  GRAD.:    13.952 HEAT: -92.40808
 CYCLE:   128 TIME:   0.086 TIME LEFT:  2.00D  GRAD.:     8.524 HEAT: -92.47640
 CYCLE:   129 TIME:   0.078 TIME LEFT:  2.00D  GRAD.:     4.505 HEAT: -92.49774
 CYCLE:   130 TIME:   0.070 TIME LEFT:  2.00D  GRAD.:     3.541 HEAT: -92.52035
 CYCLE:   131 TIME:   0.078 TIME LEFT:  2.00D  GRAD.:     9.014 HEAT: -92.55825
 CYCLE:   132 TIME:   0.086 TIME LEFT:  2.00D  GRAD.:     8.587 HEAT: -92.61348
 CYCLE:   133 TIME:   0.086 TIME LEFT:  2.00D  GRAD.:    11.356 HEAT: -92.61211
 CYCLE:   134 TIME:   0.086 TIME LEFT:  2.00D  GRAD.:     8.583 HEAT: -92.68912
 CYCLE:   135 TIME:   0.070 TIME LEFT:  2.00D  GRAD.:    10.391 HEAT: -92.70653
 CYCLE:   136 TIME:   0.070 TIME LEFT:  2.00D  GRAD.:     4.494 HEAT: -92.73422
 CYCLE:   137 TIME:   0.086 TIME LEFT:  2.00D  GRAD.:     6.586 HEAT: -92.76532
 CYCLE:   138 TIME:   0.078 TIME LEFT:  2.00D  GRAD.:     8.085 HEAT: -92.79024
 CYCLE:   139 TIME:   0.078 TIME LEFT:  2.00D  GRAD.:     8.881 HEAT: -92.84534
 CYCLE:   140 TIME:   0.086 TIME LEFT:  2.00D  GRAD.:     8.534 HEAT: -92.88045
 CYCLE:   141 TIME:   0.078 TIME LEFT:  2.00D  GRAD.:     7.055 HEAT: -92.91560
 CYCLE:   142 TIME:   0.086 TIME LEFT:  2.00D  GRAD.:     5.869 HEAT: -92.93896
 CYCLE:   143 TIME:   0.078 TIME LEFT:  2.00D  GRAD.:     5.173 HEAT: -92.95943
 CYCLE:   144 TIME:   0.078 TIME LEFT:  2.00D  GRAD.:     4.636 HEAT: -92.99173
 CYCLE:   145 TIME:   0.086 TIME LEFT:  2.00D  GRAD.:     9.912 HEAT: -93.00780
 CYCLE:   146 TIME:   0.078 TIME LEFT:  2.00D  GRAD.:    13.664 HEAT: -93.01666
 CYCLE:   147 TIME:   0.070 TIME LEFT:  2.00D  GRAD.:     3.922 HEAT: -93.04558
 CYCLE:   148 TIME:   0.078 TIME LEFT:  2.00D  GRAD.:     2.997 HEAT: -93.05456
 CYCLE:   149 TIME:   0.078 TIME LEFT:  2.00D  GRAD.:    10.920 HEAT: -93.03777
 CYCLE:   150 TIME:   0.094 TIME LEFT:  2.00D  GRAD.:     5.970 HEAT: -93.08316
 CYCLE:   151 TIME:   0.070 TIME LEFT:  2.00D  GRAD.:     6.706 HEAT: -93.09276
 CYCLE:   152 TIME:   0.078 TIME LEFT:  2.00D  GRAD.:     3.469 HEAT: -93.10796
 CYCLE:   153 TIME:   0.078 TIME LEFT:  2.00D  GRAD.:     3.986 HEAT: -93.12598
 CYCLE:   154 TIME:   0.078 TIME LEFT:  2.00D  GRAD.:     4.951 HEAT: -93.14387
 CYCLE:   155 TIME:   0.086 TIME LEFT:  2.00D  GRAD.:    10.116 HEAT: -93.16113
 CYCLE:   156 TIME:   0.070 TIME LEFT:  2.00D  GRAD.:     4.855 HEAT: -93.19199
 CYCLE:   157 TIME:   0.070 TIME LEFT:  2.00D  GRAD.:     4.539 HEAT: -93.21068
 CYCLE:   158 TIME:   0.086 TIME LEFT:  2.00D  GRAD.:     5.261 HEAT: -93.22709
 CYCLE:   159 TIME:   0.078 TIME LEFT:  2.00D  GRAD.:     8.545 HEAT: -93.25974
 CYCLE:   160 TIME:   0.086 TIME LEFT:  2.00D  GRAD.:     8.453 HEAT: -93.28451
 CYCLE:   161 TIME:   0.078 TIME LEFT:  2.00D  GRAD.:    14.842 HEAT: -93.30188
 CYCLE:   162 TIME:   0.078 TIME LEFT:  2.00D  GRAD.:     5.098 HEAT: -93.33243
 CYCLE:   163 TIME:   0.070 TIME LEFT:  2.00D  GRAD.:     4.142 HEAT: -93.34524
 CYCLE:   164 TIME:   0.078 TIME LEFT:  2.00D  GRAD.:     6.259 HEAT: -93.36068
 CYCLE:   165 TIME:   0.078 TIME LEFT:  2.00D  GRAD.:     5.347 HEAT: -93.38234
 CYCLE:   166 TIME:   0.078 TIME LEFT:  2.00D  GRAD.:     6.317 HEAT: -93.41857
 CYCLE:   167 TIME:   0.078 TIME LEFT:  2.00D  GRAD.:     6.628 HEAT: -93.43768
 CYCLE:   168 TIME:   0.070 TIME LEFT:  2.00D  GRAD.:     4.693 HEAT: -93.45472
 CYCLE:   169 TIME:   0.078 TIME LEFT:  2.00D  GRAD.:     5.405 HEAT: -93.47280
 CYCLE:   170 TIME:   0.078 TIME LEFT:  2.00D  GRAD.:    11.422 HEAT: -93.49344
 CYCLE:   171 TIME:   0.078 TIME LEFT:  2.00D  GRAD.:     5.962 HEAT: -93.52313
 CYCLE:   172 TIME:   0.070 TIME LEFT:  2.00D  GRAD.:     3.982 HEAT: -93.54153
 CYCLE:   173 TIME:   0.078 TIME LEFT:  2.00D  GRAD.:     5.309 HEAT: -93.55960
 CYCLE:   174 TIME:   0.086 TIME LEFT:  2.00D  GRAD.:     7.639 HEAT: -93.58238
 CYCLE:   175 TIME:   0.078 TIME LEFT:  2.00D  GRAD.:    12.650 HEAT: -93.59919
 CYCLE:   176 TIME:   0.078 TIME LEFT:  2.00D  GRAD.:     5.930 HEAT: -93.64143
 CYCLE:   177 TIME:   0.078 TIME LEFT:  2.00D  GRAD.:     5.336 HEAT: -93.67279
 CYCLE:   178 TIME:   0.070 TIME LEFT:  2.00D  GRAD.:     5.489 HEAT: -93.70049
 CYCLE:   179 TIME:   0.078 TIME LEFT:  2.00D  GRAD.:     7.459 HEAT: -93.72931
 CYCLE:   180 TIME:   0.086 TIME LEFT:  2.00D  GRAD.:    14.558 HEAT: -93.74337
 CYCLE:   181 TIME:   0.070 TIME LEFT:  2.00D  GRAD.:     5.826 HEAT: -93.79089
 CYCLE:   182 TIME:   0.086 TIME LEFT:  2.00D  GRAD.:     4.334 HEAT: -93.81088
 CYCLE:   183 TIME:   0.086 TIME LEFT:  2.00D  GRAD.:     5.089 HEAT: -93.83970
 CYCLE:   184 TIME:   0.078 TIME LEFT:  2.00D  GRAD.:     7.484 HEAT: -93.88193
 CYCLE:   185 TIME:   0.078 TIME LEFT:  2.00D  GRAD.:    19.363 HEAT: -93.87660
 CYCLE:   186 TIME:   0.078 TIME LEFT:  2.00D  GRAD.:    30.596 HEAT: -93.81083
 CYCLE:   187 TIME:   0.086 TIME LEFT:  2.00D  GRAD.:     9.979 HEAT: -93.97409
 CYCLE:   188 TIME:   0.086 TIME LEFT:  2.00D  GRAD.:     7.878 HEAT: -94.02858
 CYCLE:   189 TIME:   0.078 TIME LEFT:  2.00D  GRAD.:    22.768 HEAT: -94.00021
 CYCLE:   190 TIME:   0.094 TIME LEFT:  2.00D  GRAD.:     7.552 HEAT: -94.11186
 CYCLE:   191 TIME:   0.078 TIME LEFT:  2.00D  GRAD.:     5.100 HEAT: -94.15000
 CYCLE:   192 TIME:   0.078 TIME LEFT:  2.00D  GRAD.:     7.117 HEAT: -94.18415
 CYCLE:   193 TIME:   0.086 TIME LEFT:  2.00D  GRAD.:    19.308 HEAT: -94.19270
 CYCLE:   194 TIME:   0.078 TIME LEFT:  2.00D  GRAD.:     8.037 HEAT: -94.29794
 CYCLE:   195 TIME:   0.078 TIME LEFT:  2.00D  GRAD.:     5.371 HEAT: -94.34741
 CYCLE:   196 TIME:   0.070 TIME LEFT:  2.00D  GRAD.:     7.319 HEAT: -94.38600
 CYCLE:   197 TIME:   0.078 TIME LEFT:  2.00D  GRAD.:     8.379 HEAT: -94.43731
 CYCLE:   198 TIME:   0.086 TIME LEFT:  2.00D  GRAD.:    11.869 HEAT: -94.46882
 CYCLE:   199 TIME:   0.078 TIME LEFT:  2.00D  GRAD.:    11.705 HEAT: -94.52394
 CYCLE:   200 TIME:   0.078 TIME LEFT:  2.00D  GRAD.:     6.538 HEAT: -94.57298
 CYCLE:   201 TIME:   0.078 TIME LEFT:  2.00D  GRAD.:     6.633 HEAT: -94.61078
 CYCLE:   202 TIME:   0.086 TIME LEFT:  2.00D  GRAD.:     8.646 HEAT: -94.65305
 CYCLE:   203 TIME:   0.078 TIME LEFT:  2.00D  GRAD.:     8.900 HEAT: -94.68857
 CYCLE:   204 TIME:   0.070 TIME LEFT:  2.00D  GRAD.:     7.298 HEAT: -94.73044
 CYCLE:   205 TIME:   0.086 TIME LEFT:  2.00D  GRAD.:    10.478 HEAT: -94.76225
 CYCLE:   206 TIME:   0.078 TIME LEFT:  2.00D  GRAD.:     5.454 HEAT: -94.79465
 CYCLE:   207 TIME:   0.078 TIME LEFT:  2.00D  GRAD.:     4.447 HEAT: -94.81772
 CYCLE:   208 TIME:   0.070 TIME LEFT:  2.00D  GRAD.:     6.166 HEAT: -94.83628
 CYCLE:   209 TIME:   0.086 TIME LEFT:  2.00D  GRAD.:     6.574 HEAT: -94.84231
 CYCLE:   210 TIME:   0.078 TIME LEFT:  2.00D  GRAD.:     4.451 HEAT: -94.86121
 CYCLE:   211 TIME:   0.070 TIME LEFT:  2.00D  GRAD.:     5.217 HEAT: -94.88116
 CYCLE:   212 TIME:   0.070 TIME LEFT:  2.00D  GRAD.:     5.708 HEAT: -94.90311
 CYCLE:   213 TIME:   0.078 TIME LEFT:  2.00D  GRAD.:     3.584 HEAT: -94.92056
 CYCLE:   214 TIME:   0.086 TIME LEFT:  2.00D  GRAD.:     5.969 HEAT: -94.92100
 CYCLE:   215 TIME:   0.086 TIME LEFT:  2.00D  GRAD.:     6.276 HEAT: -94.94245
 CYCLE:   216 TIME:   0.070 TIME LEFT:  2.00D  GRAD.:     3.270 HEAT: -94.95438
 CYCLE:   217 TIME:   0.086 TIME LEFT:  2.00D  GRAD.:     3.485 HEAT: -94.95722
 CYCLE:   218 TIME:   0.086 TIME LEFT:  2.00D  GRAD.:     7.017 HEAT: -94.97236
 CYCLE:   219 TIME:   0.070 TIME LEFT:  2.00D  GRAD.:    15.500 HEAT: -94.96999
 CYCLE:   220 TIME:   0.078 TIME LEFT:  2.00D  GRAD.:     4.468 HEAT: -95.00775
 CYCLE:   221 TIME:   0.070 TIME LEFT:  2.00D  GRAD.:     2.693 HEAT: -95.01571
 CYCLE:   222 TIME:   0.086 TIME LEFT:  2.00D  GRAD.:     5.936 HEAT: -95.02304
 CYCLE:   223 TIME:   0.078 TIME LEFT:  2.00D  GRAD.:     3.847 HEAT: -95.03663
 CYCLE:   224 TIME:   0.078 TIME LEFT:  2.00D  GRAD.:     3.880 HEAT: -95.03685
 CYCLE:   225 TIME:   0.078 TIME LEFT:  2.00D  GRAD.:     3.371 HEAT: -95.04828
 CYCLE:   226 TIME:   0.078 TIME LEFT:  2.00D  GRAD.:     4.969 HEAT: -95.06573
 CYCLE:   227 TIME:   0.086 TIME LEFT:  2.00D  GRAD.:     6.462 HEAT: -95.08603
 CYCLE:   228 TIME:   0.078 TIME LEFT:  2.00D  GRAD.:    10.625 HEAT: -95.07573
 CYCLE:   229 TIME:   0.078 TIME LEFT:  2.00D  GRAD.:     3.550 HEAT: -95.10586
 CYCLE:   230 TIME:   0.086 TIME LEFT:  2.00D  GRAD.:     2.934 HEAT: -95.09491
 CYCLE:   231 TIME:   0.086 TIME LEFT:  2.00D  GRAD.:     4.615 HEAT: -95.11232
 CYCLE:   232 TIME:   0.086 TIME LEFT:  2.00D  GRAD.:     7.966 HEAT: -95.12672
 CYCLE:   233 TIME:   0.070 TIME LEFT:  2.00D  GRAD.:     3.269 HEAT: -95.13775
 CYCLE:   234 TIME:   0.078 TIME LEFT:  2.00D  GRAD.:     1.998 HEAT: -95.14286
 CYCLE:   235 TIME:   0.086 TIME LEFT:  2.00D  GRAD.:     2.669 HEAT: -95.14798
 CYCLE:   236 TIME:   0.070 TIME LEFT:  2.00D  GRAD.:     4.868 HEAT: -95.14697
 CYCLE:   237 TIME:   0.078 TIME LEFT:  2.00D  GRAD.:     3.421 HEAT: -95.16004
 CYCLE:   238 TIME:   0.094 TIME LEFT:  2.00D  GRAD.:     4.875 HEAT: -95.17534
 CYCLE:   239 TIME:   0.078 TIME LEFT:  2.00D  GRAD.:     3.016 HEAT: -95.18365
 CYCLE:   240 TIME:   0.078 TIME LEFT:  2.00D  GRAD.:     2.393 HEAT: -95.18763
 CYCLE:   241 TIME:   0.078 TIME LEFT:  2.00D  GRAD.:     5.136 HEAT: -95.18323
 CYCLE:   242 TIME:   0.070 TIME LEFT:  2.00D  GRAD.:     2.820 HEAT: -95.19206
 CYCLE:   243 TIME:   0.086 TIME LEFT:  2.00D  GRAD.:     3.731 HEAT: -95.19947
 CYCLE:   244 TIME:   0.078 TIME LEFT:  2.00D  GRAD.:     5.070 HEAT: -95.20742
 CYCLE:   245 TIME:   0.070 TIME LEFT:  2.00D  GRAD.:     3.296 HEAT: -95.22509
 CYCLE:   246 TIME:   0.086 TIME LEFT:  2.00D  GRAD.:     5.405 HEAT: -95.23207
 CYCLE:   247 TIME:   0.078 TIME LEFT:  2.00D  GRAD.:     2.819 HEAT: -95.24031
 CYCLE:   248 TIME:   0.078 TIME LEFT:  2.00D  GRAD.:     2.410 HEAT: -95.24637
 CYCLE:   249 TIME:   0.078 TIME LEFT:  2.00D  GRAD.:     3.199 HEAT: -95.24676
 CYCLE:   250 TIME:   0.094 TIME LEFT:  2.00D  GRAD.:     4.703 HEAT: -95.26109
 CYCLE:   251 TIME:   0.078 TIME LEFT:  2.00D  GRAD.:    16.711 HEAT: -95.23699
 CYCLE:   252 TIME:   0.078 TIME LEFT:  2.00D  GRAD.:     3.370 HEAT: -95.27644
 CYCLE:   253 TIME:   0.078 TIME LEFT:  2.00D  GRAD.:     2.252 HEAT: -95.28080
 CYCLE:   254 TIME:   0.086 TIME LEFT:  2.00D  GRAD.:     4.589 HEAT: -95.30056
 CYCLE:   255 TIME:   0.070 TIME LEFT:  2.00D  GRAD.:     3.978 HEAT: -95.31039
 CYCLE:   256 TIME:   0.078 TIME LEFT:  2.00D  GRAD.:     3.111 HEAT: -95.32431
 CYCLE:   257 TIME:   0.078 TIME LEFT:  2.00D  GRAD.:     4.264 HEAT: -95.33536
 CYCLE:   258 TIME:   0.078 TIME LEFT:  2.00D  GRAD.:     4.921 HEAT: -95.34241
 CYCLE:   259 TIME:   0.078 TIME LEFT:  2.00D  GRAD.:     3.973 HEAT: -95.35785
 CYCLE:   260 TIME:   0.070 TIME LEFT:  2.00D  GRAD.:     4.166 HEAT: -95.36757
 CYCLE:   261 TIME:   0.086 TIME LEFT:  2.00D  GRAD.:     5.549 HEAT: -95.37974
 CYCLE:   262 TIME:   0.078 TIME LEFT:  2.00D  GRAD.:     5.251 HEAT: -95.40476
 CYCLE:   263 TIME:   0.078 TIME LEFT:  2.00D  GRAD.:     4.041 HEAT: -95.42772
 CYCLE:   264 TIME:   0.078 TIME LEFT:  2.00D  GRAD.:     5.080 HEAT: -95.44181
 CYCLE:   265 TIME:   0.078 TIME LEFT:  2.00D  GRAD.:     4.142 HEAT: -95.44883
 CYCLE:   266 TIME:   0.078 TIME LEFT:  2.00D  GRAD.:     5.732 HEAT: -95.46233
 CYCLE:   267 TIME:   0.070 TIME LEFT:  2.00D  GRAD.:     4.184 HEAT: -95.48277
 CYCLE:   268 TIME:   0.078 TIME LEFT:  2.00D  GRAD.:     3.376 HEAT: -95.49222
 CYCLE:   269 TIME:   0.078 TIME LEFT:  2.00D  GRAD.:     4.350 HEAT: -95.49925
 CYCLE:   270 TIME:   0.078 TIME LEFT:  2.00D  GRAD.:     5.778 HEAT: -95.50233
 CYCLE:   271 TIME:   0.078 TIME LEFT:  2.00D  GRAD.:     3.717 HEAT: -95.51810
 CYCLE:   272 TIME:   0.070 TIME LEFT:  2.00D  GRAD.:     2.881 HEAT: -95.51798
 CYCLE:   273 TIME:   0.078 TIME LEFT:  2.00D  GRAD.:     3.317 HEAT: -95.52813
 CYCLE:   274 TIME:   0.086 TIME LEFT:  2.00D  GRAD.:     7.417 HEAT: -95.54151
 CYCLE:   275 TIME:   0.070 TIME LEFT:  2.00D  GRAD.:     2.795 HEAT: -95.54311
 CYCLE:   276 TIME:   0.078 TIME LEFT:  2.00D  GRAD.:     2.628 HEAT: -95.54834
 CYCLE:   277 TIME:   0.070 TIME LEFT:  2.00D  GRAD.:     3.377 HEAT: -95.56446
 CYCLE:   278 TIME:   0.078 TIME LEFT:  2.00D  GRAD.:     4.878 HEAT: -95.57057
 CYCLE:   279 TIME:   0.070 TIME LEFT:  2.00D  GRAD.:     2.659 HEAT: -95.57914
 CYCLE:   280 TIME:   0.078 TIME LEFT:  2.00D  GRAD.:     2.475 HEAT: -95.58650
 CYCLE:   281 TIME:   0.078 TIME LEFT:  2.00D  GRAD.:     2.878 HEAT: -95.58345
 CYCLE:   282 TIME:   0.078 TIME LEFT:  2.00D  GRAD.:     4.073 HEAT: -95.58894
 CYCLE:   283 TIME:   0.078 TIME LEFT:  2.00D  GRAD.:     2.626 HEAT: -95.60180
 CYCLE:   284 TIME:   0.070 TIME LEFT:  2.00D  GRAD.:     2.217 HEAT: -95.60570
 CYCLE:   285 TIME:   0.078 TIME LEFT:  2.00D  GRAD.:     2.078 HEAT: -95.60850
 CYCLE:   286 TIME:   0.078 TIME LEFT:  2.00D  GRAD.:     2.639 HEAT: -95.61473
 CYCLE:   287 TIME:   0.078 TIME LEFT:  2.00D  GRAD.:     3.952 HEAT: -95.61813
 CYCLE:   288 TIME:   0.078 TIME LEFT:  2.00D  GRAD.:     2.120 HEAT: -95.62202
 CYCLE:   289 TIME:   0.070 TIME LEFT:  2.00D  GRAD.:     1.652 HEAT: -95.62561
 CYCLE:   290 TIME:   0.086 TIME LEFT:  2.00D  GRAD.:     2.116 HEAT: -95.61993
 CYCLE:   291 TIME:   0.078 TIME LEFT:  2.00D  GRAD.:     2.917 HEAT: -95.63146
 CYCLE:   292 TIME:   0.078 TIME LEFT:  2.00D  GRAD.:     3.054 HEAT: -95.63395
 CYCLE:   293 TIME:   0.070 TIME LEFT:  2.00D  GRAD.:     1.891 HEAT: -95.63659
 CYCLE:   294 TIME:   0.078 TIME LEFT:  2.00D  GRAD.:     1.664 HEAT: -95.63994
 CYCLE:   295 TIME:   0.078 TIME LEFT:  2.00D  GRAD.:     2.802 HEAT: -95.63421
 CYCLE:   296 TIME:   0.078 TIME LEFT:  2.00D  GRAD.:     2.750 HEAT: -95.63799
 CYCLE:   297 TIME:   0.078 TIME LEFT:  2.00D  GRAD.:     2.218 HEAT: -95.64969
 CYCLE:   298 TIME:   0.078 TIME LEFT:  2.00D  GRAD.:     1.831 HEAT: -95.65210
 CYCLE:   299 TIME:   0.070 TIME LEFT:  2.00D  GRAD.:     2.198 HEAT: -95.65541
 CYCLE:   300 TIME:   0.078 TIME LEFT:  2.00D  GRAD.:     2.769 HEAT: -95.65922
 CYCLE:   301 TIME:   0.070 TIME LEFT:  2.00D  GRAD.:     2.210 HEAT: -95.66303
 CYCLE:   302 TIME:   0.086 TIME LEFT:  2.00D  GRAD.:     1.932 HEAT: -95.66621
 CYCLE:   303 TIME:   0.078 TIME LEFT:  2.00D  GRAD.:     2.602 HEAT: -95.67108
 CYCLE:   304 TIME:   0.070 TIME LEFT:  2.00D  GRAD.:     3.273 HEAT: -95.66678
 CYCLE:   305 TIME:   0.078 TIME LEFT:  2.00D  GRAD.:     2.484 HEAT: -95.67125
 CYCLE:   306 TIME:   0.078 TIME LEFT:  2.00D  GRAD.:     2.877 HEAT: -95.68580
 CYCLE:   307 TIME:   0.078 TIME LEFT:  2.00D  GRAD.:     2.559 HEAT: -95.68968
 CYCLE:   308 TIME:   0.078 TIME LEFT:  2.00D  GRAD.:     2.131 HEAT: -95.69449
 CYCLE:   309 TIME:   0.086 TIME LEFT:  2.00D  GRAD.:     3.529 HEAT: -95.69833
 CYCLE:   310 TIME:   0.070 TIME LEFT:  2.00D  GRAD.:     1.817 HEAT: -95.70204
 CYCLE:   311 TIME:   0.078 TIME LEFT:  2.00D  GRAD.:     1.740 HEAT: -95.70430
 CYCLE:   312 TIME:   0.078 TIME LEFT:  2.00D  GRAD.:     2.716 HEAT: -95.70017
 CYCLE:   313 TIME:   0.070 TIME LEFT:  2.00D  GRAD.:     3.262 HEAT: -95.70322
 CYCLE:   314 TIME:   0.078 TIME LEFT:  2.00D  GRAD.:     2.204 HEAT: -95.70647
 CYCLE:   315 TIME:   0.078 TIME LEFT:  2.00D  GRAD.:     2.082 HEAT: -95.71740
 CYCLE:   316 TIME:   0.078 TIME LEFT:  2.00D  GRAD.:     2.666 HEAT: -95.72139
 CYCLE:   317 TIME:   0.078 TIME LEFT:  2.00D  GRAD.:     2.787 HEAT: -95.72828
 CYCLE:   318 TIME:   0.086 TIME LEFT:  2.00D  GRAD.:     4.560 HEAT: -95.73484
 CYCLE:   319 TIME:   0.070 TIME LEFT:  2.00D  GRAD.:     3.000 HEAT: -95.73403
 CYCLE:   320 TIME:   0.086 TIME LEFT:  2.00D  GRAD.:     2.876 HEAT: -95.73995
 CYCLE:   321 TIME:   0.078 TIME LEFT:  2.00D  GRAD.:     3.057 HEAT: -95.75569
 CYCLE:   322 TIME:   0.078 TIME LEFT:  2.00D  GRAD.:     4.263 HEAT: -95.75380
 CYCLE:   323 TIME:   0.078 TIME LEFT:  2.00D  GRAD.:     2.677 HEAT: -95.76792
 CYCLE:   324 TIME:   0.078 TIME LEFT:  2.00D  GRAD.:     3.119 HEAT: -95.75610
 CYCLE:   325 TIME:   0.070 TIME LEFT:  2.00D  GRAD.:     3.262 HEAT: -95.76434
 CYCLE:   326 TIME:   0.086 TIME LEFT:  2.00D  GRAD.:     3.542 HEAT: -95.78713
 CYCLE:   327 TIME:   0.070 TIME LEFT:  2.00D  GRAD.:     2.080 HEAT: -95.79321
 CYCLE:   328 TIME:   0.086 TIME LEFT:  2.00D  GRAD.:     2.649 HEAT: -95.79736
 CYCLE:   329 TIME:   0.078 TIME LEFT:  2.00D  GRAD.:     2.624 HEAT: -95.80188
 CYCLE:   330 TIME:   0.078 TIME LEFT:  2.00D  GRAD.:     2.575 HEAT: -95.79879
 CYCLE:   331 TIME:   0.078 TIME LEFT:  2.00D  GRAD.:     2.737 HEAT: -95.81166
 CYCLE:   332 TIME:   0.078 TIME LEFT:  2.00D  GRAD.:     3.160 HEAT: -95.81579
 CYCLE:   333 TIME:   0.125 TIME LEFT:  2.00D  GRAD.:     2.680 HEAT: -95.82105
 CYCLE:   334 TIME:   0.086 TIME LEFT:  2.00D  GRAD.:     3.654 HEAT: -95.82658
 CYCLE:   335 TIME:   0.070 TIME LEFT:  2.00D  GRAD.:     2.733 HEAT: -95.83090
 CYCLE:   336 TIME:   0.078 TIME LEFT:  2.00D  GRAD.:     2.441 HEAT: -95.83457
 CYCLE:   337 TIME:   0.070 TIME LEFT:  2.00D  GRAD.:     2.741 HEAT: -95.83996
 CYCLE:   338 TIME:   0.078 TIME LEFT:  2.00D  GRAD.:     3.531 HEAT: -95.84432
 CYCLE:   339 TIME:   0.086 TIME LEFT:  2.00D  GRAD.:     2.843 HEAT: -95.84845
 CYCLE:   340 TIME:   0.078 TIME LEFT:  2.00D  GRAD.:     2.450 HEAT: -95.85324
 CYCLE:   341 TIME:   0.086 TIME LEFT:  2.00D  GRAD.:     2.462 HEAT: -95.85634
 CYCLE:   342 TIME:   0.070 TIME LEFT:  2.00D  GRAD.:     2.211 HEAT: -95.86043
 CYCLE:   343 TIME:   0.125 TIME LEFT:  2.00D  GRAD.:     3.121 HEAT: -95.86211
 CYCLE:   344 TIME:   0.078 TIME LEFT:  2.00D  GRAD.:     4.757 HEAT: -95.86646
 CYCLE:   345 TIME:   0.289 TIME LEFT:  2.00D  GRAD.:     2.484 HEAT: -95.87196
 CYCLE:   346 TIME:   0.086 TIME LEFT:  2.00D  GRAD.:     1.731 HEAT: -95.87564
 CYCLE:   347 TIME:   0.078 TIME LEFT:  2.00D  GRAD.:     2.360 HEAT: -95.88000
 CYCLE:   348 TIME:   0.086 TIME LEFT:  2.00D  GRAD.:     3.330 HEAT: -95.88518
 CYCLE:   349 TIME:   0.078 TIME LEFT:  2.00D  GRAD.:     3.058 HEAT: -95.88207
 CYCLE:   350 TIME:   0.078 TIME LEFT:  2.00D  GRAD.:     2.483 HEAT: -95.89506
 CYCLE:   351 TIME:   0.086 TIME LEFT:  2.00D  GRAD.:     2.878 HEAT: -95.89914
 CYCLE:   352 TIME:   0.070 TIME LEFT:  2.00D  GRAD.:     2.723 HEAT: -95.90358
 CYCLE:   353 TIME:   0.078 TIME LEFT:  2.00D  GRAD.:     2.534 HEAT: -95.91000
 CYCLE:   354 TIME:   0.078 TIME LEFT:  2.00D  GRAD.:     3.929 HEAT: -95.91659
 CYCLE:   355 TIME:   0.078 TIME LEFT:  2.00D  GRAD.:     2.740 HEAT: -95.92204
 CYCLE:   356 TIME:   0.078 TIME LEFT:  2.00D  GRAD.:     2.401 HEAT: -95.92437
 CYCLE:   357 TIME:   0.086 TIME LEFT:  2.00D  GRAD.:     2.834 HEAT: -95.92945
 CYCLE:   358 TIME:   0.070 TIME LEFT:  2.00D  GRAD.:     3.073 HEAT: -95.93527
 CYCLE:   359 TIME:   0.078 TIME LEFT:  2.00D  GRAD.:     2.453 HEAT: -95.94040
 CYCLE:   360 TIME:   0.070 TIME LEFT:  2.00D  GRAD.:     3.443 HEAT: -95.94596
 CYCLE:   361 TIME:   0.078 TIME LEFT:  2.00D  GRAD.:     2.225 HEAT: -95.95022
 CYCLE:   362 TIME:   0.109 TIME LEFT:  2.00D  GRAD.:     2.595 HEAT: -95.95327
 CYCLE:   363 TIME:   0.094 TIME LEFT:  2.00D  GRAD.:     2.907 HEAT: -95.95701
 CYCLE:   364 TIME:   0.078 TIME LEFT:  2.00D  GRAD.:     4.363 HEAT: -95.95939
 CYCLE:   365 TIME:   0.078 TIME LEFT:  2.00D  GRAD.:     4.174 HEAT: -95.96435
 CYCLE:   366 TIME:   0.086 TIME LEFT:  2.00D  GRAD.:     4.487 HEAT: -95.97412
 CYCLE:   367 TIME:   0.070 TIME LEFT:  2.00D  GRAD.:     4.009 HEAT: -95.98084
 CYCLE:   368 TIME:   0.078 TIME LEFT:  2.00D  GRAD.:     3.917 HEAT: -95.98066
 CYCLE:   369 TIME:   0.078 TIME LEFT:  2.00D  GRAD.:     6.753 HEAT: -95.98179
 CYCLE:   370 TIME:   0.078 TIME LEFT:  2.00D  GRAD.:     4.562 HEAT: -95.98993
 CYCLE:   371 TIME:   0.078 TIME LEFT:  2.00D  GRAD.:     2.800 HEAT: -95.99253
 CYCLE:   372 TIME:   0.078 TIME LEFT:  2.00D  GRAD.:     3.604 HEAT: -95.99827
 CYCLE:   373 TIME:   0.078 TIME LEFT:  2.00D  GRAD.:     2.531 HEAT: -96.00452
 CYCLE:   374 TIME:   0.086 TIME LEFT:  2.00D  GRAD.:     2.940 HEAT: -96.00534
 CYCLE:   375 TIME:   0.164 TIME LEFT:  2.00D  GRAD.:     5.089 HEAT: -96.01375
 CYCLE:   376 TIME:   0.086 TIME LEFT:  2.00D  GRAD.:     2.682 HEAT: -96.02121
 CYCLE:   377 TIME:   0.086 TIME LEFT:  2.00D  GRAD.:     3.366 HEAT: -96.02378
 CYCLE:   378 TIME:   0.078 TIME LEFT:  2.00D  GRAD.:     6.001 HEAT: -96.02772
 CYCLE:   379 TIME:   0.070 TIME LEFT:  2.00D  GRAD.:     2.221 HEAT: -96.03787
 CYCLE:   380 TIME:   0.086 TIME LEFT:  2.00D  GRAD.:     2.397 HEAT: -96.03616
 CYCLE:   381 TIME:   0.086 TIME LEFT:  2.00D  GRAD.:     4.506 HEAT: -96.03905
 CYCLE:   382 TIME:   0.078 TIME LEFT:  2.00D  GRAD.:     5.679 HEAT: -96.05803
 CYCLE:   383 TIME:   0.070 TIME LEFT:  2.00D  GRAD.:     4.709 HEAT: -96.06491
 CYCLE:   384 TIME:   0.086 TIME LEFT:  2.00D  GRAD.:     2.561 HEAT: -96.07318
 CYCLE:   385 TIME:   0.086 TIME LEFT:  2.00D  GRAD.:     3.849 HEAT: -96.06794
 CYCLE:   386 TIME:   0.078 TIME LEFT:  2.00D  GRAD.:     7.918 HEAT: -96.06853
 CYCLE:   387 TIME:   0.070 TIME LEFT:  2.00D  GRAD.:     5.412 HEAT: -96.08433
 CYCLE:   388 TIME:   0.078 TIME LEFT:  2.00D  GRAD.:     1.624 HEAT: -96.09194
 CYCLE:   389 TIME:   0.086 TIME LEFT:  2.00D  GRAD.:     8.036 HEAT: -96.07884
 CYCLE:   390 TIME:   0.078 TIME LEFT:  2.00D  GRAD.:     1.974 HEAT: -96.09908
 CYCLE:   391 TIME:   0.086 TIME LEFT:  2.00D  GRAD.:     2.004 HEAT: -96.10161
 CYCLE:   392 TIME:   0.125 TIME LEFT:  2.00D  GRAD.:     1.830 HEAT: -96.10838
 CYCLE:   393 TIME:   0.086 TIME LEFT:  2.00D  GRAD.:     8.225 HEAT: -96.10721
 CYCLE:   394 TIME:   0.078 TIME LEFT:  2.00D  GRAD.:     3.870 HEAT: -96.13168
 CYCLE:   395 TIME:   0.070 TIME LEFT:  2.00D  GRAD.:     2.426 HEAT: -96.13767
 CYCLE:   396 TIME:   0.086 TIME LEFT:  2.00D  GRAD.:     4.413 HEAT: -96.14189
 CYCLE:   397 TIME:   0.078 TIME LEFT:  2.00D  GRAD.:     3.224 HEAT: -96.15107
 CYCLE:   398 TIME:   0.070 TIME LEFT:  2.00D  GRAD.:     2.498 HEAT: -96.14716
 CYCLE:   399 TIME:   0.086 TIME LEFT:  2.00D  GRAD.:     2.669 HEAT: -96.16226
 CYCLE:   400 TIME:   0.086 TIME LEFT:  2.00D  GRAD.:     5.040 HEAT: -96.16884
 CYCLE:   401 TIME:   0.070 TIME LEFT:  2.00D  GRAD.:     5.051 HEAT: -96.17497
 CYCLE:   402 TIME:   0.078 TIME LEFT:  2.00D  GRAD.:     2.448 HEAT: -96.18234
 CYCLE:   403 TIME:   0.078 TIME LEFT:  2.00D  GRAD.:     2.734 HEAT: -96.18967
 CYCLE:   404 TIME:   0.086 TIME LEFT:  2.00D  GRAD.:     5.014 HEAT: -96.19222
 CYCLE:   405 TIME:   0.086 TIME LEFT:  2.00D  GRAD.:     7.127 HEAT: -96.19017
 CYCLE:   406 TIME:   0.070 TIME LEFT:  2.00D  GRAD.:     3.429 HEAT: -96.20141
 CYCLE:   407 TIME:   0.086 TIME LEFT:  2.00D  GRAD.:     2.475 HEAT: -96.20752
 CYCLE:   408 TIME:   0.094 TIME LEFT:  2.00D  GRAD.:     9.372 HEAT: -96.21642
 CYCLE:   409 TIME:   0.094 TIME LEFT:  2.00D  GRAD.:     9.539 HEAT: -96.20949
 CYCLE:   410 TIME:   0.086 TIME LEFT:  2.00D  GRAD.:    11.802 HEAT: -96.21658
 CYCLE:   411 TIME:   0.078 TIME LEFT:  2.00D  GRAD.:     4.506 HEAT: -96.23499
 CYCLE:   412 TIME:   0.078 TIME LEFT:  2.00D  GRAD.:     2.206 HEAT: -96.23979
 CYCLE:   413 TIME:   0.086 TIME LEFT:  2.00D  GRAD.:     9.937 HEAT: -96.24299
 CYCLE:   414 TIME:   0.078 TIME LEFT:  2.00D  GRAD.:     3.970 HEAT: -96.25581
 CYCLE:   415 TIME:   0.078 TIME LEFT:  2.00D  GRAD.:     2.035 HEAT: -96.26420
 CYCLE:   416 TIME:   0.086 TIME LEFT:  2.00D  GRAD.:     5.062 HEAT: -96.27620
 CYCLE:   417 TIME:   0.070 TIME LEFT:  2.00D  GRAD.:     4.081 HEAT: -96.28455
 CYCLE:   418 TIME:   0.086 TIME LEFT:  2.00D  GRAD.:     7.151 HEAT: -96.27250
 CYCLE:   419 TIME:   0.086 TIME LEFT:  2.00D  GRAD.:     3.283 HEAT: -96.31120
 CYCLE:   420 TIME:   0.078 TIME LEFT:  2.00D  GRAD.:     6.398 HEAT: -96.30740
 CYCLE:   421 TIME:   0.070 TIME LEFT:  2.00D  GRAD.:     1.808 HEAT: -96.31623
 CYCLE:   422 TIME:   0.086 TIME LEFT:  2.00D  GRAD.:     3.488 HEAT: -96.31883
 CYCLE:   423 TIME:   0.078 TIME LEFT:  2.00D  GRAD.:     1.981 HEAT: -96.32450
 CYCLE:   424 TIME:   0.078 TIME LEFT:  2.00D  GRAD.:     2.281 HEAT: -96.33209
 CYCLE:   425 TIME:   0.086 TIME LEFT:  2.00D  GRAD.:     4.164 HEAT: -96.33639
 CYCLE:   426 TIME:   0.078 TIME LEFT:  2.00D  GRAD.:     3.326 HEAT: -96.34069
 CYCLE:   427 TIME:   0.086 TIME LEFT:  2.00D  GRAD.:     3.324 HEAT: -96.34353
 CYCLE:   428 TIME:   0.078 TIME LEFT:  2.00D  GRAD.:     4.737 HEAT: -96.35094
 CYCLE:   429 TIME:   0.094 TIME LEFT:  2.00D  GRAD.:     2.031 HEAT: -96.35645
 CYCLE:   430 TIME:   0.078 TIME LEFT:  2.00D  GRAD.:     1.751 HEAT: -96.35853
 CYCLE:   431 TIME:   0.078 TIME LEFT:  2.00D  GRAD.:     3.181 HEAT: -96.35217
 CYCLE:   432 TIME:   0.078 TIME LEFT:  2.00D  GRAD.:     4.042 HEAT: -96.35846
 CYCLE:   433 TIME:   0.086 TIME LEFT:  2.00D  GRAD.:     4.373 HEAT: -96.36599
 CYCLE:   434 TIME:   0.078 TIME LEFT:  2.00D  GRAD.:     4.137 HEAT: -96.37005
 CYCLE:   435 TIME:   0.078 TIME LEFT:  2.00D  GRAD.:     4.364 HEAT: -96.36809
 CYCLE:   436 TIME:   0.078 TIME LEFT:  2.00D  GRAD.:     2.859 HEAT: -96.38216
 CYCLE:   437 TIME:   0.070 TIME LEFT:  2.00D  GRAD.:     1.978 HEAT: -96.38549
 CYCLE:   438 TIME:   0.086 TIME LEFT:  2.00D  GRAD.:     3.565 HEAT: -96.38559
 CYCLE:   439 TIME:   0.086 TIME LEFT:  2.00D  GRAD.:     2.157 HEAT: -96.39085
 CYCLE:   440 TIME:   0.078 TIME LEFT:  2.00D  GRAD.:     1.298 HEAT: -96.39374
 CYCLE:   441 TIME:   0.078 TIME LEFT:  2.00D  GRAD.:     1.706 HEAT: -96.39647
 CYCLE:   442 TIME:   0.086 TIME LEFT:  2.00D  GRAD.:     1.702 HEAT: -96.40085
 CYCLE:   443 TIME:   0.086 TIME LEFT:  2.00D  GRAD.:     3.453 HEAT: -96.40222
 CYCLE:   444 TIME:   0.078 TIME LEFT:  2.00D  GRAD.:     1.326 HEAT: -96.40484
 CYCLE:   445 TIME:   0.086 TIME LEFT:  2.00D  GRAD.:     1.659 HEAT: -96.40671
 CYCLE:   446 TIME:   0.078 TIME LEFT:  2.00D  GRAD.:     1.541 HEAT: -96.40872
 CYCLE:   447 TIME:   0.086 TIME LEFT:  2.00D  GRAD.:     2.028 HEAT: -96.41181
 CYCLE:   448 TIME:   0.086 TIME LEFT:  2.00D  GRAD.:     9.772 HEAT: -96.39120
 CYCLE:   449 TIME:   0.070 TIME LEFT:  2.00D  GRAD.:     1.764 HEAT: -96.41579
 CYCLE:   450 TIME:   0.078 TIME LEFT:  2.00D  GRAD.:     0.989 HEAT: -96.41628

 -------------------------------------------------------------------------------
 PM7 XYZ

 Lipophilicity_1923 - geometry optimisation


     HERBERTS TEST WAS SATISFIED IN BFGS                      
     SCF FIELD WAS ACHIEVED                                   


                              PM7 CALCULATION
                                                       MOPAC v23.0.3 Linux
                                                       Fri Jul 25 18:37:56 2025




          FINAL HEAT OF FORMATION =        -96.41629 KCAL/MOL =    -403.40574 KJ/MOL


          COSMO AREA              =        569.17 SQUARE ANGSTROMS
          COSMO VOLUME            =        652.02 CUBIC ANGSTROMS

          GRADIENT NORM           =          0.98851          =       0.11414 PER ATOM
          IONIZATION POTENTIAL    =          8.585420 EV
          HOMO LUMO ENERGIES (EV) =         -8.585 -0.885
          NO. OF FILLED LEVELS    =        108
          MOLECULAR WEIGHT        =        563.6305         POINT GROUP:  C1  

          MOLECULAR DIMENSIONS (Angstroms)

            Atom       Atom       Distance
            H    69    F    20    23.39640
            H    44    H    49     8.34261
            H    53    H    48     7.24346


          SCF CALCULATIONS        =        451

          WALL-CLOCK TIME         =     36.187 SECONDS
          COMPUTATION TIME        =         12 MINUTES AND 1.588 SECONDS




   ATOM   CHEMICAL          X               Y               Z
  NUMBER   SYMBOL      (ANGSTROMS)     (ANGSTROMS)     (ANGSTROMS)

     1       C         -0.38263079  *  -3.55723575  *   3.31050433  *
     2       O         -1.32266914  *  -2.78012345  *   2.57780944  *
     3       C         -0.82487720  *  -1.71952002  *   1.89228700  *
     4       C          0.49120913  *  -1.35560551  *   1.79477051  *
     5       C          0.85992571  *  -0.21310484  *   1.03699181  *
     6       C          2.20056132  *   0.30717673  *   0.92232915  *
     7       N          3.24373199  *  -0.31741418  *   1.58678022  *
     8       C          4.49010541  *   0.27011859  *   1.80002425  *
     9       C          5.13202090  *   1.38780525  *   1.18707357  *
    10       C          6.37428927  *   1.48998908  *   1.82131210  *
    11       C          7.46613038  *   2.45315289  *   1.59783774  *
    12       C          8.64983209  *   1.88403303  *   0.82577876  *
    13       O          9.77109790  *   2.29198411  *   1.01214073  *
    14       N          8.34022990  *   0.89297211  *  -0.10117242  *
    15       C          9.27696750  *   0.19657869  *  -0.89254136  *
    16       C          8.79742940  *  -0.91602449  *  -1.61411841  *
    17       C          9.66222979  *  -1.65132191  *  -2.41524605  *
    18       C         11.00860224  *  -1.30546883  *  -2.52287280  *
    19       C         11.44965600  *  -0.19826469  *  -1.80184071  *
    20       F         12.72518798  *   0.14536173  *  -1.89486785  *
    21       C         10.62235245  *   0.56915368  *  -0.98598045  *
    22       N          6.44298991  *   0.46484338  *   2.75146117  *
    23       N          5.31535185  *  -0.28500878  *   2.75397125  *
    24       N          2.47383561  *   1.38621512  *   0.16689419  *
    25       C          1.43536994  *   1.99194539  *  -0.48631569  *
    26       N          0.16331692  *   1.61562972  *  -0.41971954  *
    27       C         -0.14290751  *   0.51709736  *   0.34991221  *
    28       C         -1.50899290  *   0.13571188  *   0.45997831  *
    29       C         -1.85384665  *  -0.94644411  *   1.22725204  *
    30       O         -3.09881594  *  -1.40024597  *   1.46233494  *
    31       C         -4.20012429  *  -0.64100507  *   0.95451518  *
    32       C         -4.45370534  *  -0.99955879  *  -0.50736028  *
    33       C         -5.45572237  *  -0.01002488  *  -1.13195439  *
    34       N         -6.65357480  *   0.09872195  *  -0.26178495  *
    35       C         -7.33790038  *   1.40068517  *  -0.46632226  *
    36       C         -8.84993214  *   1.31517680  *  -0.20875700  *
    37       C         -9.55220690  *   0.33276455  *  -1.16370547  *
    38       C        -10.01979894  *   1.03099720  *  -2.45163936  *
    39       O         -8.95598785  *   1.37940158  *  -3.31357354  *
    40       C         -8.63704099  *  -0.85489628  *  -1.50546001  *
    41       C         -7.57185608  *  -1.04935670  *  -0.41448720  *
    42       H          0.32320164  *  -4.05327319  *   2.63723823  *
    43       H          0.12913516  *  -2.95216512  *   4.06571212  *
    44       H         -1.03235254  *  -4.29916509  *   3.79508677  *
    45       H          1.26241742  *  -1.93594961  *   2.29333873  *
    46       H          3.02987471  *  -1.13478283  *   2.15778958  *
    47       H          4.72236515  *   2.01371826  *   0.41810158  *
    48       H          7.84689564  *   2.87588785  *   2.55971276  *
    49       H          7.08716026  *   3.34838585  *   1.04253036  *
    50       H          7.37018737  *   0.57614839  *  -0.15788188  *
    51       H          7.75179211  *  -1.20574169  *  -1.54394481  *
    52       H          9.28363343  *  -2.51347131  *  -2.96594496  *
    53       H         11.68621097  *  -1.88150798  *  -3.14654341  *
    54       H         11.02163990  *   1.42864019  *  -0.44125513  *
    55       H          7.18407338  *   0.21553833  *   3.37538420  *
    56       H          1.69928513  *   2.86501552  *  -1.10389278  *
    57       H         -2.24468318  *   0.73754371  *  -0.07393553  *
    58       H         -4.05347671  *   0.43878263  *   1.12070058  *
    59       H         -5.01694448  *  -0.99193696  *   1.61852304  *
    60       H         -4.82341115  *  -2.03904538  *  -0.58265896  *
    61       H         -3.50722838  *  -0.98257464  *  -1.08365214  *
    62       H         -4.97303528  *   0.99052839  *  -1.20854150  *
    63       H         -5.70161874  *  -0.32453462  *  -2.16813269  *
    64       H         -6.87169821  *   2.10807681  *   0.25949672  *
    65       H         -7.15794774  *   1.82277695  *  -1.48179151  *
    66       H         -9.02044243  *   0.99751857  *   0.83992285  *
    67       H         -9.29855479  *   2.32253195  *  -0.28744002  *
    68       H        -10.46266309  *  -0.05505919  *  -0.64221622  *
    69       H        -10.64025473  *   0.36216002  *  -3.07832598  *
    70       H        -10.58363469  *   1.95726282  *  -2.23758441  *
    71       H         -8.15061234  *   1.59515487  *  -2.79731797  *
    72       H         -9.23405358  *  -1.77570155  *  -1.62579514  *
    73       H         -8.14381810  *  -0.69875589  *  -2.48581817  *
    74       H         -6.98968013  *  -1.97502643  *  -0.60617695  *
    75       H         -8.06218442  *  -1.19571127  *   0.57569804  *

                             CARTESIAN COORDINATES

   1    C       -0.382630790    -3.557235747     3.310504325
   2    O       -1.322669145    -2.780123454     2.577809441
   3    C       -0.824877196    -1.719520024     1.892287003
   4    C        0.491209126    -1.355605508     1.794770512
   5    C        0.859925707    -0.213104836     1.036991809
   6    C        2.200561319     0.307176729     0.922329148
   7    N        3.243731994    -0.317414178     1.586780225
   8    C        4.490105411     0.270118591     1.800024255
   9    C        5.132020900     1.387805245     1.187073571
  10    C        6.374289271     1.489989081     1.821312104
  11    C        7.466130384     2.453152890     1.597837745
  12    C        8.649832092     1.884033028     0.825778759
  13    O        9.771097898     2.291984111     1.012140725
  14    N        8.340229900     0.892972106    -0.101172415
  15    C        9.276967501     0.196578692    -0.892541356
  16    C        8.797429401    -0.916024488    -1.614118409
  17    C        9.662229787    -1.651321908    -2.415246054
  18    C       11.008602240    -1.305468831    -2.522872798
  19    C       11.449656005    -0.198264688    -1.801840711
  20    F       12.725187982     0.145361725    -1.894867848
  21    C       10.622352449     0.569153678    -0.985980448
  22    N        6.442989909     0.464843381     2.751461172
  23    N        5.315351850    -0.285008775     2.753971247
  24    N        2.473835611     1.386215115     0.166894188
  25    C        1.435369943     1.991945390    -0.486315693
  26    N        0.163316916     1.615629721    -0.419719540
  27    C       -0.142907508     0.517097359     0.349912206
  28    C       -1.508992900     0.135711879     0.459978307
  29    C       -1.853846647    -0.946444112     1.227252040
  30    O       -3.098815939    -1.400245970     1.462334936
  31    C       -4.200124290    -0.641005072     0.954515183
  32    C       -4.453705336    -0.999558790    -0.507360283
  33    C       -5.455722372    -0.010024884    -1.131954390
  34    N       -6.653574805     0.098721952    -0.261784951
  35    C       -7.337900383     1.400685172    -0.466322263
  36    C       -8.849932140     1.315176804    -0.208756998
  37    C       -9.552206895     0.332764555    -1.163705474
  38    C      -10.019798945     1.030997198    -2.451639363
  39    O       -8.955987849     1.379401580    -3.313573538
  40    C       -8.637040992    -0.854896278    -1.505460008
  41    C       -7.571856077    -1.049356697    -0.414487202
  42    H        0.323201638    -4.053273188     2.637238231
  43    H        0.129135156    -2.952165115     4.065712123
  44    H       -1.032352543    -4.299165089     3.795086772
  45    H        1.262417418    -1.935949611     2.293338731
  46    H        3.029874711    -1.134782828     2.157789577
  47    H        4.722365154     2.013718255     0.418101577
  48    H        7.846895637     2.875887852     2.559712759
  49    H        7.087160261     3.348385847     1.042530358
  50    H        7.370187374     0.576148388    -0.157881877
  51    H        7.751792107    -1.205741690    -1.543944813
  52    H        9.283633433    -2.513471307    -2.965944962
  53    H       11.686210974    -1.881507985    -3.146543412
  54    H       11.021639899     1.428640192    -0.441255130
  55    H        7.184073382     0.215538329     3.375384205
  56    H        1.699285129     2.865015523    -1.103892776
  57    H       -2.244683180     0.737543706    -0.073935529
  58    H       -4.053476714     0.438782630     1.120700576
  59    H       -5.016944481    -0.991936955     1.618523042
  60    H       -4.823411152    -2.039045378    -0.582658960
  61    H       -3.507228378    -0.982574643    -1.083652144
  62    H       -4.973035280     0.990528386    -1.208541504
  63    H       -5.701618740    -0.324534619    -2.168132693
  64    H       -6.871698214     2.108076809     0.259496722
  65    H       -7.157947744     1.822776955    -1.481791511
  66    H       -9.020442427     0.997518574     0.839922850
  67    H       -9.298554785     2.322531945    -0.287440022
  68    H      -10.462663087    -0.055059187    -0.642216220
  69    H      -10.640254726     0.362160018    -3.078325985
  70    H      -10.583634686     1.957262816    -2.237584412
  71    H       -8.150612341     1.595154874    -2.797317969
  72    H       -9.234053581    -1.775701552    -1.625795145
  73    H       -8.143818105    -0.698755891    -2.485818172
  74    H       -6.989680126    -1.975026433    -0.606176946
  75    H       -8.062184422    -1.195711268     0.575698040


           Empirical Formula: C29 H34 N7 O4 F  =    75 atoms



      MOLECULAR POINT GROUP   :   C1  


                  EIGENVALUES  
 -41.04429 -40.56119 -38.01556 -37.50658 -36.94759 -35.46676 -33.68950 -31.37579
 -31.14982 -30.82899 -30.77965 -30.63053 -30.30284 -30.08983 -28.60581 -28.30051
 -27.50335 -26.69494 -26.48153 -26.40259 -26.03629 -25.98558 -25.37541 -25.18918
 -24.66927 -23.78384 -23.02155 -22.94692 -22.43691 -22.37308 -21.54404 -21.47400
 -21.26240 -21.18354 -20.57268 -20.20982 -20.12983 -19.32214 -18.79054 -18.70440
 -18.52136 -18.42760 -17.99966 -17.85204 -17.41698 -17.27661 -17.17407 -16.81596
 -16.76900 -16.64064 -16.43979 -16.40957 -16.29482 -16.26162 -16.16798 -15.92756
 -15.90220 -15.79749 -15.70753 -15.54527 -15.35790 -15.34985 -15.08851 -15.00277
 -14.84506 -14.79895 -14.70061 -14.55528 -14.50331 -14.44846 -14.40308 -14.25194
 -14.12787 -13.93823 -13.77202 -13.69658 -13.47016 -13.36493 -13.35713 -13.23577
 -13.10272 -13.03892 -13.02287 -12.89806 -12.79407 -12.57458 -12.49295 -12.37611
 -12.04252 -11.95970 -11.82435 -11.73130 -11.66946 -11.62669 -11.60154 -11.55342
 -11.27785 -11.19896 -10.98879 -10.58602 -10.14576 -10.10959 -10.04167  -9.63241
  -9.27007  -9.19268  -9.00394  -8.58542  -0.88523  -0.46851  -0.26443  -0.05087
  -0.01421   0.34539   0.83166   0.92786   1.11821   1.27491   1.39177   1.52417
   1.75173   1.83383   2.27080   2.49831   2.53646   2.77610   2.83348   2.84126
   2.85794   3.01060   3.02305   3.10250   3.26998   3.32049   3.50776   3.58257
   3.63870   3.69228   3.73822   3.82391   3.84785   4.01735   4.01845   4.08256
   4.13324   4.16065   4.20918   4.23218   4.33377   4.44377   4.45281   4.46899
   4.54646   4.58655   4.72972   4.74509   4.75881   4.81753   4.89359   4.91568
   4.97757   5.08485   5.09255   5.11443   5.17594   5.21863   5.28173   5.28841
   5.32510   5.36517   5.38637   5.44834   5.45802   5.47832   5.48927   5.62305
   5.64763   5.66838   5.70969   5.74365   5.75503   5.79333   5.82062   5.86737
   5.88004   5.89296   5.97104   6.00149   6.08679   6.09180   6.11242   6.21427
   6.24890   6.36573   6.38796   6.40525   6.40581   6.45498


              NET ATOMIC CHARGES AND DIPOLE CONTRIBUTIONS

  ATOM NO.   TYPE          CHARGE      No. of ELECS.   s-Pop       p-Pop       
    1          C          -0.215759        4.2158     1.08831     3.12745
    2          O          -0.257636        6.2576     1.87132     4.38632
    3          C           0.147572        3.8524     1.08207     2.77036
    4          C          -0.233714        4.2337     1.06520     3.16852
    5          C          -0.234256        4.2343     1.05437     3.17988
    6          C           0.429946        3.5701     1.05222     2.51784
    7          N          -0.446334        5.4463     1.51731     3.92902
    8          C           0.256021        3.7440     1.04810     2.69588
    9          C          -0.289312        4.2893     1.08484     3.20447
   10          C           0.043944        3.9561     1.06437     2.89169
   11          C          -0.368804        4.3688     1.06296     3.30584
   12          C           0.589509        3.4105     1.08225     2.32824
   13          O          -0.488755        6.4888     1.87852     4.61023
   14          N          -0.565034        5.5650     1.55265     4.01238
   15          C           0.265959        3.7340     1.05456     2.67949
   16          C          -0.292197        4.2922     1.07560     3.21660
   17          C          -0.048774        4.0488     1.08316     2.96561
   18          C          -0.278072        4.2781     1.07645     3.20162
   19          C           0.249932        3.7501     1.09806     2.65201
   20          F          -0.170173        7.1702     1.96612     5.20406
   21          C          -0.301781        4.3018     1.08070     3.22108
   22          N          -0.179553        5.1796     1.51015     3.66940
   23          N          -0.327137        5.3271     1.80413     3.52301
   24          N          -0.552462        5.5525     1.75637     3.79609
   25          C           0.274675        3.7253     1.10920     2.61613
   26          N          -0.477442        5.4774     1.75098     3.72647
   27          C           0.258968        3.7410     1.06164     2.67940
   28          C          -0.325810        4.3258     1.07242     3.25339
   29          C           0.244003        3.7560     1.08841     2.66759
   30          O          -0.296650        6.2966     1.86591     4.43074
   31          C          -0.027309        4.0273     1.09667     2.93063
   32          C          -0.312485        4.3125     1.06619     3.24630
   33          C          -0.113919        4.1139     1.06951     3.04441
   34          N          -0.443794        5.4438     1.68650     3.75730
   35          C          -0.095686        4.0957     1.06877     3.02691
   36          C          -0.304092        4.3041     1.06552     3.23857
   37          C          -0.154958        4.1550     1.06993     3.08503
   38          C          -0.015227        4.0152     1.09010     2.92513
   39          O          -0.554326        6.5543     1.85047     4.70385
   40          C          -0.322152        4.3222     1.06627     3.25588
   41          C          -0.103311        4.1033     1.06780     3.03551
   42          H           0.137475        0.8625     0.86253
   43          H           0.138647        0.8614     0.86135
   44          H           0.153156        0.8468     0.84684
   45          H           0.161953        0.8380     0.83805
   46          H           0.330026        0.6700     0.66997
   47          H           0.215554        0.7844     0.78445
   48          H           0.198626        0.8014     0.80137
   49          H           0.206647        0.7934     0.79335
   50          H           0.330669        0.6693     0.66933
   51          H           0.166027        0.8340     0.83397
   52          H           0.154196        0.8458     0.84580
   53          H           0.176113        0.8239     0.82389
   54          H           0.217432        0.7826     0.78257
   55          H           0.335871        0.6641     0.66413
   56          H           0.191866        0.8081     0.80813
   57          H           0.200280        0.7997     0.79972
   58          H           0.141225        0.8588     0.85878
   59          H           0.161812        0.8382     0.83819
   60          H           0.150333        0.8497     0.84967
   61          H           0.159789        0.8402     0.84021
   62          H           0.141739        0.8583     0.85826
   63          H           0.120428        0.8796     0.87957
   64          H           0.144689        0.8553     0.85531
   65          H           0.105711        0.8943     0.89429
   66          H           0.154067        0.8459     0.84593
   67          H           0.143479        0.8565     0.85652
   68          H           0.141783        0.8582     0.85822
   69          H           0.139399        0.8606     0.86060
   70          H           0.121138        0.8789     0.87886
   71          H           0.313690        0.6863     0.68631
   72          H           0.142459        0.8575     0.85754
   73          H           0.159537        0.8405     0.84046
   74          H           0.136506        0.8635     0.86349
   75          H           0.144061        0.8559     0.85594
 DIPOLE           X         Y         Z       TOTAL
 POINT-CHG.    -6.102    -2.234     2.675     7.027
 HYBRID         0.289    -0.863     0.353     0.976
 SUM           -5.813    -3.096     3.029     7.249


          ATOMIC ORBITAL ELECTRON POPULATIONS

     Atom    s        px        py        pz   
    1  C   1.08831   1.04514   1.03266   1.04964
    2  O   1.87132   1.33851   1.42092   1.62689
    3  C   1.08207   0.95011   0.88382   0.93642
    4  C   1.06520   1.03072   1.04708   1.09071
    5  C   1.05437   0.98601   1.06528   1.12859
    6  C   1.05222   0.83845   0.84259   0.83680
    7  N   1.51731   1.13583   1.29992   1.49327
    8  C   1.04810   0.83230   0.93881   0.92477
    9  C   1.08484   0.98999   1.08122   1.13327
   10  C   1.06437   1.00192   0.93368   0.95609
   11  C   1.06296   1.03483   1.09624   1.17477
   12  C   1.08225   0.83882   0.74441   0.74501
   13  O   1.87852   1.32559   1.61323   1.67141
   14  N   1.55265   1.19816   1.39723   1.41699
   15  C   1.05456   0.90102   0.89904   0.87943
   16  C   1.07560   1.09749   1.03706   1.08205
   17  C   1.08316   0.97749   1.01969   0.96843
   18  C   1.07645   1.04202   1.05875   1.10085
   19  C   1.09806   0.79112   0.93137   0.92952
   20  F   1.96612   1.30685   1.92922   1.96798
   21  C   1.08070   0.99487   1.12300   1.10321
   22  N   1.51015   1.14700   1.21323   1.30917
   23  N   1.80413   1.00008   1.23993   1.28299
   24  N   1.75637   1.38633   1.18873   1.22104
   25  C   1.10920   0.79020   0.94655   0.87938
   26  N   1.75098   1.25071   1.21143   1.26433
   27  C   1.06164   0.95076   0.86439   0.86425
   28  C   1.07242   1.04737   1.07813   1.12789
   29  C   1.08841   0.83096   0.92498   0.91166
   30  O   1.86591   1.19733   1.52041   1.71301
   31  C   1.09667   0.87798   1.05327   0.99939
   32  C   1.06619   1.10544   1.10589   1.03496
   33  C   1.06951   0.93217   1.09587   1.01636
   34  N   1.68650   1.12904   1.07818   1.55008
   35  C   1.06877   0.97802   0.93397   1.11492
   36  C   1.06552   1.01577   1.10681   1.11599
   37  C   1.06993   1.06373   1.00582   1.01548
   38  C   1.09010   0.89660   1.08323   0.94530
   39  O   1.85047   1.34975   1.92592   1.42818
   40  C   1.06627   1.07329   1.07726   1.10533
   41  C   1.06780   0.98835   0.97096   1.07620
   42  H   0.86253
   43  H   0.86135
   44  H   0.84684
   45  H   0.83805
   46  H   0.66997
   47  H   0.78445
   48  H   0.80137
   49  H   0.79335
   50  H   0.66933
   51  H   0.83397
   52  H   0.84580
   53  H   0.82389
   54  H   0.78257
   55  H   0.66413
   56  H   0.80813
   57  H   0.79972
   58  H   0.85878
   59  H   0.83819
   60  H   0.84967
   61  H   0.84021
   62  H   0.85826
   63  H   0.87957
   64  H   0.85531
   65  H   0.89429
   66  H   0.84593
   67  H   0.85652
   68  H   0.85822
   69  H   0.86060
   70  H   0.87886
   71  H   0.68631
   72  H   0.85754
   73  H   0.84046
   74  H   0.86349
   75  H   0.85594

 **********************
 *                    *
 * JOB ENDED NORMALLY *
 *                    *
 **********************



 TOTAL JOB TIME:            36.20 SECONDS

 == MOPAC DONE ==
