 *******************************************************************************
 **                                                                           **
 **                              MOPAC v23.0.3                                **
 **                                                                           **
 *******************************************************************************
 **          Digital Object Identifier (DOI): 10.5281/zenodo.6511958          **
 **    Visit the DOI location for information on how to cite this program.    **
 *******************************************************************************

                              PM7 CALCULATION RESULTS

 *******************************************************************************
 *  CALCULATION DONE:                                Fri Jul 25 17:11:49 2025  *
 *  PM7        - The PM7 Hamiltonian to be used
 *  XYZ        - CARTESIAN COORDINATE SYSTEM TO BE USED
 *  T=         - A TIME OF 172800.0 SECONDS REQUESTED
 *  DUMP=N     - RESTART FILE WRITTEN EVERY 7200.0 SECONDS REQUESTED
 *******************************************************************************
PM7 XYZ

 Lipophilicity_1444 - geometry optimisation
   ATOM   CHEMICAL          X               Y               Z
  NUMBER   SYMBOL      (ANGSTROMS)     (ANGSTROMS)     (ANGSTROMS)

     1       C          3.06513500  *  -0.55979400  *   1.65481400  *
     2       C          3.41179200  *   0.76416400  *   0.95369800  *
     3       C          4.71273000  *   0.65584300  *   0.14827200  *
     4       N          2.30490700  *   1.28957700  *   0.12714900  *
     5       C          1.76685000  *   0.32948600  *  -0.85217700  *
     6       C          0.92570700  *   1.05227600  *  -1.92291300  *
     7       O          0.47725700  *   0.12266800  *  -2.87398400  *
     8       C         -0.28379300  *   1.79879400  *  -1.32847500  *
     9       O         -1.00934200  *   0.98470900  *  -0.40478600  *
    10       C         -1.87866700  *  -0.06965400  *  -0.73260700  *
    11       C         -2.42091700  *  -0.22236900  *  -2.02441300  *
    12       C         -3.29314900  *  -1.27637200  *  -2.30479700  *
    13       C         -3.64115200  *  -2.18321500  *  -1.30424800  *
    14       C         -3.11733100  *  -2.04103600  *  -0.01850400  *
    15       C         -2.23065400  *  -0.99176100  *   0.27633900  *
    16       C         -1.67619700  *  -0.85235500  *   1.67319600  *
    17       C         -2.34180400  *   0.27781900  *   2.40746100  *
    18       C         -3.62531500  *   0.21773300  *   2.77458400  *
    19       H          3.85560300  *  -0.81174600  *   2.39351800  *
    20       H          2.99335000  *  -1.39476300  *   0.92572300  *
    21       H          2.09984600  *  -0.46416900  *   2.19607900  *
    22       H          3.60504800  *   1.51078600  *   1.75697100  *
    23       H          4.68877700  *  -0.20166900  *  -0.55513700  *
    24       H          5.57133300  *   0.50953600  *   0.83828000  *
    25       H          4.88214400  *   1.59151600  *  -0.42597600  *
    26       H          1.52958400  *   1.56135600  *   0.77641300  *
    27       H          1.14492100  *  -0.43948300  *  -0.34277000  *
    28       H          2.59126500  *  -0.19716000  *  -1.37563900  *
    29       H          1.57022400  *   1.81073500  *  -2.42725900  *
    30       H          1.25101500  *  -0.09017400  *  -3.45839800  *
    31       H         -0.94662600  *   2.18713600  *  -2.12900500  *
    32       H          0.08482400  *   2.69132300  *  -0.78054000  *
    33       H         -2.18698700  *   0.47036000  *  -2.81902500  *
    34       H         -3.70522800  *  -1.38645400  *  -3.29963500  *
    35       H         -4.32024100  *  -2.99639300  *  -1.52440800  *
    36       H         -3.40199900  *  -2.75140900  *   0.74750100  *
    37       H         -1.80120900  *  -1.79419900  *   2.25121000  *
    38       H         -0.58355300  *  -0.65667100  *   1.61749600  *
    39       H         -1.75960300  *   1.16053400  *   2.65566100  *
    40       H         -4.23182000  *  -0.65309900  *   2.54433200  *
    41       H         -4.07672500  *   1.04759300  *   3.30885600  *



          CARTESIAN COORDINATES 

    NO.       ATOM           X           Y           Z

     1         C          3.0651     -0.5598      1.6548
     2         C          3.4118      0.7642      0.9537
     3         C          4.7127      0.6558      0.1483
     4         N          2.3049      1.2896      0.1271
     5         C          1.7669      0.3295     -0.8522
     6         C          0.9257      1.0523     -1.9229
     7         O          0.4773      0.1227     -2.8740
     8         C         -0.2838      1.7988     -1.3285
     9         O         -1.0093      0.9847     -0.4048
    10         C         -1.8787     -0.0697     -0.7326
    11         C         -2.4209     -0.2224     -2.0244
    12         C         -3.2931     -1.2764     -2.3048
    13         C         -3.6412     -2.1832     -1.3042
    14         C         -3.1173     -2.0410     -0.0185
    15         C         -2.2307     -0.9918      0.2763
    16         C         -1.6762     -0.8524      1.6732
    17         C         -2.3418      0.2778      2.4075
    18         C         -3.6253      0.2177      2.7746
    19         H          3.8556     -0.8117      2.3935
    20         H          2.9933     -1.3948      0.9257
    21         H          2.0998     -0.4642      2.1961
    22         H          3.6050      1.5108      1.7570
    23         H          4.6888     -0.2017     -0.5551
    24         H          5.5713      0.5095      0.8383
    25         H          4.8821      1.5915     -0.4260
    26         H          1.5296      1.5614      0.7764
    27         H          1.1449     -0.4395     -0.3428
    28         H          2.5913     -0.1972     -1.3756
    29         H          1.5702      1.8107     -2.4273
    30         H          1.2510     -0.0902     -3.4584
    31         H         -0.9466      2.1871     -2.1290
    32         H          0.0848      2.6913     -0.7805
    33         H         -2.1870      0.4704     -2.8190
    34         H         -3.7052     -1.3865     -3.2996
    35         H         -4.3202     -2.9964     -1.5244
    36         H         -3.4020     -2.7514      0.7475
    37         H         -1.8012     -1.7942      2.2512
    38         H         -0.5836     -0.6567      1.6175
    39         H         -1.7596      1.1605      2.6557
    40         H         -4.2318     -0.6531      2.5443
    41         H         -4.0767      1.0476      3.3089

 General Reference for PM7:
 "Optimization of Parameters for Semiempirical Methods VI: More Modifications to the 
 NDDO Approximations and Re-optimization of Parameters", J. J. P. Stewart, J. Mol. Mod., 1:32, 19 (2013)
 https://link.springer.com/article/10.1007/s00894-012-1667-x

           Empirical Formula: C15 H23 N O2  =    41 atoms



      MOLECULAR POINT GROUP   :   C1  


      RHF CALCULATION, NO. OF DOUBLY OCCUPIED LEVELS = 50


          Geometry optimization using L-BFGS
 CYCLE:     1 TIME:   0.031 TIME LEFT:  2.00D  GRAD.:    87.717 HEAT: -55.34346
 CYCLE:     2 TIME:   0.020 TIME LEFT:  2.00D  GRAD.:    86.675 HEAT: -55.41990
 CYCLE:     3 TIME:   0.023 TIME LEFT:  2.00D  GRAD.:    43.101 HEAT: -60.01027
 CYCLE:     4 TIME:   0.020 TIME LEFT:  2.00D  GRAD.:    86.925 HEAT: -55.41834
 CYCLE:     5 TIME:   0.023 TIME LEFT:  2.00D  GRAD.:    43.402 HEAT: -60.00749
 CYCLE:     6 TIME:   0.020 TIME LEFT:  2.00D  GRAD.:    49.462 HEAT: -61.13304
 CYCLE:     7 TIME:   0.031 TIME LEFT:  2.00D  GRAD.:    38.919 HEAT: -62.55968
 CYCLE:     8 TIME:   0.020 TIME LEFT:  2.00D  GRAD.:    71.798 HEAT: -63.17867
 CYCLE:     9 TIME:   0.023 TIME LEFT:  2.00D  GRAD.:    21.944 HEAT: -64.12790
 CYCLE:    10 TIME:   0.020 TIME LEFT:  2.00D  GRAD.:    18.118 HEAT: -64.36910
 CYCLE:    11 TIME:   0.020 TIME LEFT:  2.00D  GRAD.:    15.379 HEAT: -64.72788
 CYCLE:    12 TIME:   0.023 TIME LEFT:  2.00D  GRAD.:    20.233 HEAT: -64.97333
 CYCLE:    13 TIME:   0.020 TIME LEFT:  2.00D  GRAD.:    16.767 HEAT: -65.14097
 CYCLE:    14 TIME:   0.020 TIME LEFT:  2.00D  GRAD.:     9.865 HEAT: -65.25399
 CYCLE:    15 TIME:   0.023 TIME LEFT:  2.00D  GRAD.:    10.766 HEAT: -65.37059
 CYCLE:    16 TIME:   0.020 TIME LEFT:  2.00D  GRAD.:    11.888 HEAT: -65.51877
 CYCLE:    17 TIME:   0.020 TIME LEFT:  2.00D  GRAD.:    32.648 HEAT: -65.53111
 CYCLE:    18 TIME:   0.020 TIME LEFT:  2.00D  GRAD.:     8.084 HEAT: -65.75518
 CYCLE:    19 TIME:   0.023 TIME LEFT:  2.00D  GRAD.:     5.949 HEAT: -65.79433
 CYCLE:    20 TIME:   0.020 TIME LEFT:  2.00D  GRAD.:     7.575 HEAT: -65.85887
 CYCLE:    21 TIME:   0.020 TIME LEFT:  2.00D  GRAD.:    10.271 HEAT: -65.92948
 CYCLE:    22 TIME:   0.020 TIME LEFT:  2.00D  GRAD.:    13.896 HEAT: -65.97723
 CYCLE:    23 TIME:   0.020 TIME LEFT:  2.00D  GRAD.:     6.406 HEAT: -66.02714
 CYCLE:    24 TIME:   0.023 TIME LEFT:  2.00D  GRAD.:     5.093 HEAT: -66.04642
 CYCLE:    25 TIME:   0.020 TIME LEFT:  2.00D  GRAD.:     6.181 HEAT: -66.07596
 CYCLE:    26 TIME:   0.023 TIME LEFT:  2.00D  GRAD.:    11.401 HEAT: -66.11257
 CYCLE:    27 TIME:   0.020 TIME LEFT:  2.00D  GRAD.:     6.238 HEAT: -66.15331
 CYCLE:    28 TIME:   0.020 TIME LEFT:  2.00D  GRAD.:     4.740 HEAT: -66.18738
 CYCLE:    29 TIME:   0.020 TIME LEFT:  2.00D  GRAD.:     5.079 HEAT: -66.21079
 CYCLE:    30 TIME:   0.023 TIME LEFT:  2.00D  GRAD.:     9.010 HEAT: -66.25056
 CYCLE:    31 TIME:   0.020 TIME LEFT:  2.00D  GRAD.:     6.322 HEAT: -66.29169
 CYCLE:    32 TIME:   0.020 TIME LEFT:  2.00D  GRAD.:     5.995 HEAT: -66.32885
 CYCLE:    33 TIME:   0.023 TIME LEFT:  2.00D  GRAD.:     7.440 HEAT: -66.38129
 CYCLE:    34 TIME:   0.020 TIME LEFT:  2.00D  GRAD.:    15.247 HEAT: -66.39242
 CYCLE:    35 TIME:   0.020 TIME LEFT:  2.00D  GRAD.:     4.194 HEAT: -66.43731
 CYCLE:    36 TIME:   0.020 TIME LEFT:  2.00D  GRAD.:     3.855 HEAT: -66.45571
 CYCLE:    37 TIME:   0.023 TIME LEFT:  2.00D  GRAD.:     4.493 HEAT: -66.49040
 CYCLE:    38 TIME:   0.020 TIME LEFT:  2.00D  GRAD.:    11.719 HEAT: -66.49820
 CYCLE:    39 TIME:   0.023 TIME LEFT:  2.00D  GRAD.:     4.602 HEAT: -66.53444
 CYCLE:    40 TIME:   0.020 TIME LEFT:  2.00D  GRAD.:     3.200 HEAT: -66.54562
 CYCLE:    41 TIME:   0.086 TIME LEFT:  2.00D  GRAD.:     4.482 HEAT: -66.56338
 CYCLE:    42 TIME:   0.023 TIME LEFT:  2.00D  GRAD.:     6.579 HEAT: -66.58044
 CYCLE:    43 TIME:   0.020 TIME LEFT:  2.00D  GRAD.:     3.882 HEAT: -66.59938
 CYCLE:    44 TIME:   0.020 TIME LEFT:  2.00D  GRAD.:     3.316 HEAT: -66.61612
 CYCLE:    45 TIME:   0.023 TIME LEFT:  2.00D  GRAD.:     4.546 HEAT: -66.62827
 CYCLE:    46 TIME:   0.020 TIME LEFT:  2.00D  GRAD.:     4.256 HEAT: -66.64490
 CYCLE:    47 TIME:   0.020 TIME LEFT:  2.00D  GRAD.:     3.390 HEAT: -66.65917
 CYCLE:    48 TIME:   0.020 TIME LEFT:  2.00D  GRAD.:     3.647 HEAT: -66.67227
 CYCLE:    49 TIME:   0.020 TIME LEFT:  2.00D  GRAD.:     3.394 HEAT: -66.68311
 CYCLE:    50 TIME:   0.023 TIME LEFT:  2.00D  GRAD.:     3.096 HEAT: -66.69453
 CYCLE:    51 TIME:   0.020 TIME LEFT:  2.00D  GRAD.:     6.411 HEAT: -66.70562
 CYCLE:    52 TIME:   0.020 TIME LEFT:  2.00D  GRAD.:     3.894 HEAT: -66.71954
 CYCLE:    53 TIME:   0.020 TIME LEFT:  2.00D  GRAD.:     3.648 HEAT: -66.72935
 CYCLE:    54 TIME:   0.023 TIME LEFT:  2.00D  GRAD.:     6.121 HEAT: -66.76086
 CYCLE:    55 TIME:   0.020 TIME LEFT:  2.00D  GRAD.:     5.288 HEAT: -66.78585
 CYCLE:    56 TIME:   0.023 TIME LEFT:  2.00D  GRAD.:     6.655 HEAT: -66.80773
 CYCLE:    57 TIME:   0.020 TIME LEFT:  2.00D  GRAD.:     7.277 HEAT: -66.82728
 CYCLE:    58 TIME:   0.023 TIME LEFT:  2.00D  GRAD.:     4.668 HEAT: -66.85979
 CYCLE:    59 TIME:   0.020 TIME LEFT:  2.00D  GRAD.:     7.910 HEAT: -66.87431
 CYCLE:    60 TIME:   0.023 TIME LEFT:  2.00D  GRAD.:     5.689 HEAT: -66.89051
 CYCLE:    61 TIME:   0.020 TIME LEFT:  2.00D  GRAD.:     4.590 HEAT: -66.90865
 CYCLE:    62 TIME:   0.020 TIME LEFT:  2.00D  GRAD.:     4.668 HEAT: -66.92382
 CYCLE:    63 TIME:   0.023 TIME LEFT:  2.00D  GRAD.:     6.149 HEAT: -66.94370
 CYCLE:    64 TIME:   0.020 TIME LEFT:  2.00D  GRAD.:     6.280 HEAT: -66.96439
 CYCLE:    65 TIME:   0.020 TIME LEFT:  2.00D  GRAD.:     4.299 HEAT: -66.98033
 CYCLE:    66 TIME:   0.023 TIME LEFT:  2.00D  GRAD.:     5.440 HEAT: -67.00074
 CYCLE:    67 TIME:   0.020 TIME LEFT:  2.00D  GRAD.:     8.014 HEAT: -67.04964
 CYCLE:    68 TIME:   0.023 TIME LEFT:  2.00D  GRAD.:    11.811 HEAT: -67.10561
 CYCLE:    69 TIME:   0.020 TIME LEFT:  2.00D  GRAD.:    10.636 HEAT: -67.14389
 CYCLE:    70 TIME:   0.023 TIME LEFT:  2.00D  GRAD.:    12.764 HEAT: -67.16820
 CYCLE:    71 TIME:   0.020 TIME LEFT:  2.00D  GRAD.:     6.683 HEAT: -67.22023
 CYCLE:    72 TIME:   0.023 TIME LEFT:  2.00D  GRAD.:     6.434 HEAT: -67.23537
 CYCLE:    73 TIME:   0.020 TIME LEFT:  2.00D  GRAD.:     4.541 HEAT: -67.26420
 CYCLE:    74 TIME:   0.023 TIME LEFT:  2.00D  GRAD.:     9.392 HEAT: -67.29175
 CYCLE:    75 TIME:   0.023 TIME LEFT:  2.00D  GRAD.:     7.856 HEAT: -67.33822
 CYCLE:    76 TIME:   0.020 TIME LEFT:  2.00D  GRAD.:     8.593 HEAT: -67.39701
 CYCLE:    77 TIME:   0.023 TIME LEFT:  2.00D  GRAD.:    12.694 HEAT: -67.47418
 CYCLE:    78 TIME:   0.023 TIME LEFT:  2.00D  GRAD.:    13.870 HEAT: -67.60617
 CYCLE:    79 TIME:   0.020 TIME LEFT:  2.00D  GRAD.:    12.373 HEAT: -67.74990
 CYCLE:    80 TIME:   0.023 TIME LEFT:  2.00D  GRAD.:    21.515 HEAT: -67.83804
 CYCLE:    81 TIME:   0.023 TIME LEFT:  2.00D  GRAD.:    36.399 HEAT: -67.70764
 CYCLE:    82 TIME:   0.020 TIME LEFT:  2.00D  GRAD.:    12.850 HEAT: -68.22990
 CYCLE:    83 TIME:   0.023 TIME LEFT:  2.00D  GRAD.:    10.608 HEAT: -68.34501
 CYCLE:    84 TIME:   0.020 TIME LEFT:  2.00D  GRAD.:    15.598 HEAT: -68.49692
 CYCLE:    85 TIME:   0.023 TIME LEFT:  2.00D  GRAD.:    17.949 HEAT: -68.66155
 CYCLE:    86 TIME:   0.031 TIME LEFT:  2.00D  GRAD.:    15.368 HEAT: -68.84645
 CYCLE:    87 TIME:   0.027 TIME LEFT:  2.00D  GRAD.:    21.284 HEAT: -69.02827
 CYCLE:    88 TIME:   0.039 TIME LEFT:  2.00D  GRAD.:    14.230 HEAT: -69.13114
 CYCLE:    89 TIME:   0.023 TIME LEFT:  2.00D  GRAD.:    17.277 HEAT: -69.19078
 CYCLE:    90 TIME:   0.020 TIME LEFT:  2.00D  GRAD.:     7.816 HEAT: -69.28856
 CYCLE:    91 TIME:   0.023 TIME LEFT:  2.00D  GRAD.:     7.570 HEAT: -69.37436
 CYCLE:    92 TIME:   0.020 TIME LEFT:  2.00D  GRAD.:    10.305 HEAT: -69.44795
 CYCLE:    93 TIME:   0.023 TIME LEFT:  2.00D  GRAD.:    12.774 HEAT: -69.52340
 CYCLE:    94 TIME:   0.020 TIME LEFT:  2.00D  GRAD.:     6.757 HEAT: -69.59215
 CYCLE:    95 TIME:   0.020 TIME LEFT:  2.00D  GRAD.:     6.370 HEAT: -69.62803
 CYCLE:    96 TIME:   0.020 TIME LEFT:  2.00D  GRAD.:    10.208 HEAT: -69.67002
 CYCLE:    97 TIME:   0.020 TIME LEFT:  2.00D  GRAD.:     8.058 HEAT: -69.71024
 CYCLE:    98 TIME:   0.020 TIME LEFT:  2.00D  GRAD.:     5.402 HEAT: -69.73993
 CYCLE:    99 TIME:   0.023 TIME LEFT:  2.00D  GRAD.:     6.413 HEAT: -69.77820
 CYCLE:   100 TIME:   0.020 TIME LEFT:  2.00D  GRAD.:     7.319 HEAT: -69.79738
 CYCLE:   101 TIME:   0.020 TIME LEFT:  2.00D  GRAD.:     4.985 HEAT: -69.81880
 CYCLE:   102 TIME:   0.020 TIME LEFT:  2.00D  GRAD.:     4.211 HEAT: -69.84282
 CYCLE:   103 TIME:   0.020 TIME LEFT:  2.00D  GRAD.:     5.010 HEAT: -69.86988
 CYCLE:   104 TIME:   0.020 TIME LEFT:  2.00D  GRAD.:     8.311 HEAT: -69.90690
 CYCLE:   105 TIME:   0.023 TIME LEFT:  2.00D  GRAD.:     5.576 HEAT: -69.94783
 CYCLE:   106 TIME:   0.020 TIME LEFT:  2.00D  GRAD.:     4.393 HEAT: -69.97455
 CYCLE:   107 TIME:   0.020 TIME LEFT:  2.00D  GRAD.:     6.437 HEAT: -70.01210
 CYCLE:   108 TIME:   0.020 TIME LEFT:  2.00D  GRAD.:    11.198 HEAT: -70.03524
 CYCLE:   109 TIME:   0.020 TIME LEFT:  2.00D  GRAD.:     6.464 HEAT: -70.06937
 CYCLE:   110 TIME:   0.020 TIME LEFT:  2.00D  GRAD.:     4.830 HEAT: -70.11205
 CYCLE:   111 TIME:   0.020 TIME LEFT:  2.00D  GRAD.:     5.225 HEAT: -70.13393
 CYCLE:   112 TIME:   0.023 TIME LEFT:  2.00D  GRAD.:    14.348 HEAT: -70.15444
 CYCLE:   113 TIME:   0.020 TIME LEFT:  2.00D  GRAD.:     4.646 HEAT: -70.19762
 CYCLE:   114 TIME:   0.020 TIME LEFT:  2.00D  GRAD.:     3.408 HEAT: -70.21103
 CYCLE:   115 TIME:   0.023 TIME LEFT:  2.00D  GRAD.:     3.780 HEAT: -70.22759
 CYCLE:   116 TIME:   0.020 TIME LEFT:  2.00D  GRAD.:    11.699 HEAT: -70.22456
 CYCLE:   117 TIME:   0.020 TIME LEFT:  2.00D  GRAD.:     3.245 HEAT: -70.24629
 CYCLE:   118 TIME:   0.023 TIME LEFT:  2.00D  GRAD.:     2.169 HEAT: -70.25188
 CYCLE:   119 TIME:   0.020 TIME LEFT:  2.00D  GRAD.:     2.830 HEAT: -70.25951
 CYCLE:   120 TIME:   0.020 TIME LEFT:  2.00D  GRAD.:     3.012 HEAT: -70.26965
 CYCLE:   121 TIME:   0.023 TIME LEFT:  2.00D  GRAD.:     7.256 HEAT: -70.27663
 CYCLE:   122 TIME:   0.020 TIME LEFT:  2.00D  GRAD.:     2.585 HEAT: -70.29074
 CYCLE:   123 TIME:   0.020 TIME LEFT:  2.00D  GRAD.:     2.128 HEAT: -70.29533
 CYCLE:   124 TIME:   0.023 TIME LEFT:  2.00D  GRAD.:     3.425 HEAT: -70.30499
 CYCLE:   125 TIME:   0.020 TIME LEFT:  2.00D  GRAD.:     4.483 HEAT: -70.31652
 CYCLE:   126 TIME:   0.023 TIME LEFT:  2.00D  GRAD.:     3.314 HEAT: -70.32849
 CYCLE:   127 TIME:   0.020 TIME LEFT:  2.00D  GRAD.:     2.967 HEAT: -70.34469
 CYCLE:   128 TIME:   0.023 TIME LEFT:  2.00D  GRAD.:     5.546 HEAT: -70.35709
 CYCLE:   129 TIME:   0.020 TIME LEFT:  2.00D  GRAD.:     3.483 HEAT: -70.37005
 CYCLE:   130 TIME:   0.020 TIME LEFT:  2.00D  GRAD.:     2.847 HEAT: -70.38270
 CYCLE:   131 TIME:   0.020 TIME LEFT:  2.00D  GRAD.:     4.560 HEAT: -70.39342
 CYCLE:   132 TIME:   0.020 TIME LEFT:  2.00D  GRAD.:     4.244 HEAT: -70.40518
 CYCLE:   133 TIME:   0.020 TIME LEFT:  2.00D  GRAD.:     3.068 HEAT: -70.41479
 CYCLE:   134 TIME:   0.023 TIME LEFT:  2.00D  GRAD.:     3.179 HEAT: -70.42818
 CYCLE:   135 TIME:   0.020 TIME LEFT:  2.00D  GRAD.:     4.406 HEAT: -70.43714
 CYCLE:   136 TIME:   0.020 TIME LEFT:  2.00D  GRAD.:     2.541 HEAT: -70.44520
 CYCLE:   137 TIME:   0.020 TIME LEFT:  2.00D  GRAD.:     2.474 HEAT: -70.45100
 CYCLE:   138 TIME:   0.023 TIME LEFT:  2.00D  GRAD.:     3.092 HEAT: -70.45597
 CYCLE:   139 TIME:   0.020 TIME LEFT:  2.00D  GRAD.:     2.275 HEAT: -70.46203
 CYCLE:   140 TIME:   0.020 TIME LEFT:  2.00D  GRAD.:     2.617 HEAT: -70.46770
 CYCLE:   141 TIME:   0.020 TIME LEFT:  2.00D  GRAD.:     2.056 HEAT: -70.47243
 CYCLE:   142 TIME:   0.023 TIME LEFT:  2.00D  GRAD.:     2.116 HEAT: -70.47687
 CYCLE:   143 TIME:   0.020 TIME LEFT:  2.00D  GRAD.:     2.921 HEAT: -70.48448
 CYCLE:   144 TIME:   0.023 TIME LEFT:  2.00D  GRAD.:     3.467 HEAT: -70.49007
 CYCLE:   145 TIME:   0.020 TIME LEFT:  2.00D  GRAD.:     1.813 HEAT: -70.49421
 CYCLE:   146 TIME:   0.023 TIME LEFT:  2.00D  GRAD.:     1.643 HEAT: -70.49768
 CYCLE:   147 TIME:   0.020 TIME LEFT:  2.00D  GRAD.:     2.196 HEAT: -70.50055
 CYCLE:   148 TIME:   0.020 TIME LEFT:  2.00D  GRAD.:     2.580 HEAT: -70.50648
 CYCLE:   149 TIME:   0.023 TIME LEFT:  2.00D  GRAD.:     2.704 HEAT: -70.51278
 CYCLE:   150 TIME:   0.020 TIME LEFT:  2.00D  GRAD.:     2.144 HEAT: -70.51943
 CYCLE:   151 TIME:   0.023 TIME LEFT:  2.00D  GRAD.:     3.927 HEAT: -70.52597
 CYCLE:   152 TIME:   0.020 TIME LEFT:  2.00D  GRAD.:     2.880 HEAT: -70.53287
 CYCLE:   153 TIME:   0.020 TIME LEFT:  2.00D  GRAD.:     2.714 HEAT: -70.54060
 CYCLE:   154 TIME:   0.023 TIME LEFT:  2.00D  GRAD.:     4.243 HEAT: -70.55126
 CYCLE:   155 TIME:   0.039 TIME LEFT:  2.00D  GRAD.:     3.598 HEAT: -70.56098
 CYCLE:   156 TIME:   0.023 TIME LEFT:  2.00D  GRAD.:     2.603 HEAT: -70.56783
 CYCLE:   157 TIME:   0.023 TIME LEFT:  2.00D  GRAD.:     2.466 HEAT: -70.57835
 CYCLE:   158 TIME:   0.020 TIME LEFT:  2.00D  GRAD.:     3.694 HEAT: -70.58778
 CYCLE:   159 TIME:   0.023 TIME LEFT:  2.00D  GRAD.:     2.929 HEAT: -70.59568
 CYCLE:   160 TIME:   0.020 TIME LEFT:  2.00D  GRAD.:     2.793 HEAT: -70.60398
 CYCLE:   161 TIME:   0.023 TIME LEFT:  2.00D  GRAD.:     6.174 HEAT: -70.61819
 CYCLE:   162 TIME:   0.020 TIME LEFT:  2.00D  GRAD.:     3.223 HEAT: -70.63070
 CYCLE:   163 TIME:   0.020 TIME LEFT:  2.00D  GRAD.:     2.509 HEAT: -70.63713
 CYCLE:   164 TIME:   0.023 TIME LEFT:  2.00D  GRAD.:     2.909 HEAT: -70.64530
 CYCLE:   165 TIME:   0.020 TIME LEFT:  2.00D  GRAD.:     3.552 HEAT: -70.65350
 CYCLE:   166 TIME:   0.020 TIME LEFT:  2.00D  GRAD.:     3.200 HEAT: -70.66565
 CYCLE:   167 TIME:   0.023 TIME LEFT:  2.00D  GRAD.:     5.781 HEAT: -70.67206
 CYCLE:   168 TIME:   0.020 TIME LEFT:  2.00D  GRAD.:     2.903 HEAT: -70.68277
 CYCLE:   169 TIME:   0.020 TIME LEFT:  2.00D  GRAD.:     2.545 HEAT: -70.68836
 CYCLE:   170 TIME:   0.023 TIME LEFT:  2.00D  GRAD.:     2.797 HEAT: -70.70012
 CYCLE:   171 TIME:   0.023 TIME LEFT:  2.00D  GRAD.:     9.584 HEAT: -70.70025
 CYCLE:   172 TIME:   0.023 TIME LEFT:  2.00D  GRAD.:     3.286 HEAT: -70.72600
 CYCLE:   173 TIME:   0.020 TIME LEFT:  2.00D  GRAD.:     2.262 HEAT: -70.73406
 CYCLE:   174 TIME:   0.020 TIME LEFT:  2.00D  GRAD.:     3.258 HEAT: -70.74546
 CYCLE:   175 TIME:   0.023 TIME LEFT:  2.00D  GRAD.:     4.969 HEAT: -70.75580
 CYCLE:   176 TIME:   0.020 TIME LEFT:  2.00D  GRAD.:     3.576 HEAT: -70.76930
 CYCLE:   177 TIME:   0.020 TIME LEFT:  2.00D  GRAD.:     2.724 HEAT: -70.78324
 CYCLE:   178 TIME:   0.023 TIME LEFT:  2.00D  GRAD.:     4.111 HEAT: -70.79512
 CYCLE:   179 TIME:   0.020 TIME LEFT:  2.00D  GRAD.:     3.987 HEAT: -70.80327
 CYCLE:   180 TIME:   0.020 TIME LEFT:  2.00D  GRAD.:     2.820 HEAT: -70.81297
 CYCLE:   181 TIME:   0.020 TIME LEFT:  2.00D  GRAD.:     3.211 HEAT: -70.82382
 CYCLE:   182 TIME:   0.023 TIME LEFT:  2.00D  GRAD.:     4.221 HEAT: -70.83091
 CYCLE:   183 TIME:   0.020 TIME LEFT:  2.00D  GRAD.:     2.972 HEAT: -70.84174
 CYCLE:   184 TIME:   0.020 TIME LEFT:  2.00D  GRAD.:     3.183 HEAT: -70.85395
 CYCLE:   185 TIME:   0.023 TIME LEFT:  2.00D  GRAD.:     7.795 HEAT: -70.86027
 CYCLE:   186 TIME:   0.020 TIME LEFT:  2.00D  GRAD.:     3.679 HEAT: -70.87684
 CYCLE:   187 TIME:   0.020 TIME LEFT:  2.00D  GRAD.:     2.520 HEAT: -70.88232
 CYCLE:   188 TIME:   0.023 TIME LEFT:  2.00D  GRAD.:     2.347 HEAT: -70.88797
 CYCLE:   189 TIME:   0.023 TIME LEFT:  2.00D  GRAD.:     3.026 HEAT: -70.89483
 CYCLE:   190 TIME:   0.020 TIME LEFT:  2.00D  GRAD.:     4.648 HEAT: -70.90098
 CYCLE:   191 TIME:   0.020 TIME LEFT:  2.00D  GRAD.:     1.955 HEAT: -70.90675
 CYCLE:   192 TIME:   0.023 TIME LEFT:  2.00D  GRAD.:     1.797 HEAT: -70.91045
 CYCLE:   193 TIME:   0.020 TIME LEFT:  2.00D  GRAD.:     2.130 HEAT: -70.91518
 CYCLE:   194 TIME:   0.023 TIME LEFT:  2.00D  GRAD.:     4.040 HEAT: -70.92017
 CYCLE:   195 TIME:   0.020 TIME LEFT:  2.00D  GRAD.:     2.258 HEAT: -70.92644
 CYCLE:   196 TIME:   0.020 TIME LEFT:  2.00D  GRAD.:     1.926 HEAT: -70.93044
 CYCLE:   197 TIME:   0.023 TIME LEFT:  2.00D  GRAD.:     2.809 HEAT: -70.93669
 CYCLE:   198 TIME:   0.020 TIME LEFT:  2.00D  GRAD.:     3.477 HEAT: -70.94409
 CYCLE:   199 TIME:   0.023 TIME LEFT:  2.00D  GRAD.:     2.201 HEAT: -70.95264
 CYCLE:   200 TIME:   0.020 TIME LEFT:  2.00D  GRAD.:     2.115 HEAT: -70.95730
 CYCLE:   201 TIME:   0.020 TIME LEFT:  2.00D  GRAD.:     2.336 HEAT: -70.96163
 CYCLE:   202 TIME:   0.023 TIME LEFT:  2.00D  GRAD.:     2.241 HEAT: -70.96583
 CYCLE:   203 TIME:   0.020 TIME LEFT:  2.00D  GRAD.:     2.609 HEAT: -70.97093
 CYCLE:   204 TIME:   0.023 TIME LEFT:  2.00D  GRAD.:     3.334 HEAT: -70.97612
 CYCLE:   205 TIME:   0.020 TIME LEFT:  2.00D  GRAD.:     2.200 HEAT: -70.98106
 CYCLE:   206 TIME:   0.023 TIME LEFT:  2.00D  GRAD.:     2.142 HEAT: -70.98498
 CYCLE:   207 TIME:   0.020 TIME LEFT:  2.00D  GRAD.:     2.731 HEAT: -70.98998
 CYCLE:   208 TIME:   0.020 TIME LEFT:  2.00D  GRAD.:     2.890 HEAT: -70.99497
 CYCLE:   209 TIME:   0.020 TIME LEFT:  2.00D  GRAD.:     1.718 HEAT: -70.99940
 CYCLE:   210 TIME:   0.023 TIME LEFT:  2.00D  GRAD.:     1.602 HEAT: -71.00265
 CYCLE:   211 TIME:   0.020 TIME LEFT:  2.00D  GRAD.:     2.916 HEAT: -71.00593
 CYCLE:   212 TIME:   0.020 TIME LEFT:  2.00D  GRAD.:     1.737 HEAT: -71.00904
 CYCLE:   213 TIME:   0.020 TIME LEFT:  2.00D  GRAD.:     1.278 HEAT: -71.01068
 CYCLE:   214 TIME:   0.023 TIME LEFT:  2.00D  GRAD.:     1.505 HEAT: -71.01305
 CYCLE:   215 TIME:   0.043 TIME LEFT:  2.00D  GRAD.:     3.045 HEAT: -71.01493
 CYCLE:   216 TIME:   0.039 TIME LEFT:  2.00D  GRAD.:     1.763 HEAT: -71.01749
 CYCLE:   217 TIME:   0.051 TIME LEFT:  2.00D  GRAD.:     1.353 HEAT: -71.02033
 CYCLE:   218 TIME:   0.023 TIME LEFT:  2.00D  GRAD.:     1.445 HEAT: -71.02194
 CYCLE:   219 TIME:   0.020 TIME LEFT:  2.00D  GRAD.:     3.775 HEAT: -71.02366
 CYCLE:   220 TIME:   0.020 TIME LEFT:  2.00D  GRAD.:     1.300 HEAT: -71.02692
 CYCLE:   221 TIME:   0.023 TIME LEFT:  2.00D  GRAD.:     1.161 HEAT: -71.02816
 CYCLE:   222 TIME:   0.023 TIME LEFT:  2.00D  GRAD.:     1.295 HEAT: -71.02989
 CYCLE:   223 TIME:   0.020 TIME LEFT:  2.00D  GRAD.:     2.546 HEAT: -71.03207
 CYCLE:   224 TIME:   0.023 TIME LEFT:  2.00D  GRAD.:     1.352 HEAT: -71.03438
 CYCLE:   225 TIME:   0.020 TIME LEFT:  2.00D  GRAD.:     1.020 HEAT: -71.03577
 CYCLE:   226 TIME:   0.023 TIME LEFT:  2.00D  GRAD.:     1.249 HEAT: -71.03733
 CYCLE:   227 TIME:   0.020 TIME LEFT:  2.00D  GRAD.:     1.795 HEAT: -71.03891
 CYCLE:   228 TIME:   0.023 TIME LEFT:  2.00D  GRAD.:     1.089 HEAT: -71.04056
 CYCLE:   229 TIME:   0.020 TIME LEFT:  2.00D  GRAD.:     1.100 HEAT: -71.04224
 CYCLE:   230 TIME:   0.023 TIME LEFT:  2.00D  GRAD.:     1.528 HEAT: -71.04397
 CYCLE:   231 TIME:   0.020 TIME LEFT:  2.00D  GRAD.:     2.413 HEAT: -71.04572
 CYCLE:   232 TIME:   0.020 TIME LEFT:  2.00D  GRAD.:     1.593 HEAT: -71.04719
 CYCLE:   233 TIME:   0.020 TIME LEFT:  2.00D  GRAD.:     0.880 HEAT: -71.04805

 -------------------------------------------------------------------------------
 PM7 XYZ

 Lipophilicity_1444 - geometry optimisation


     HERBERTS TEST WAS SATISFIED IN BFGS                      
     SCF FIELD WAS ACHIEVED                                   


                              PM7 CALCULATION
                                                       MOPAC v23.0.3 Linux
                                                       Fri Jul 25 17:11:54 2025




          FINAL HEAT OF FORMATION =        -71.04805 KCAL/MOL =    -297.26504 KJ/MOL


          COSMO AREA              =        287.99 SQUARE ANGSTROMS
          COSMO VOLUME            =        335.88 CUBIC ANGSTROMS

          GRADIENT NORM           =          0.88028          =       0.13748 PER ATOM
          IONIZATION POTENTIAL    =          8.994846 EV
          HOMO LUMO ENERGIES (EV) =         -8.995  0.045
          NO. OF FILLED LEVELS    =         50
          MOLECULAR WEIGHT        =        249.3522         POINT GROUP:  C1  

          MOLECULAR DIMENSIONS (Angstroms)

            Atom       Atom       Distance
            H    35    H    24     9.74242
            O     7    H    41     8.02647
            H    32    H    19     5.60510


          SCF CALCULATIONS        =        234

          WALL-CLOCK TIME         =      5.129 SECONDS
          COMPUTATION TIME        =          1 MINUTE AND 41.996 SECONDS




   ATOM   CHEMICAL          X               Y               Z
  NUMBER   SYMBOL      (ANGSTROMS)     (ANGSTROMS)     (ANGSTROMS)

     1       C          2.45135438  *  -0.85581888  *   1.64088305  *
     2       C          2.88718381  *   0.52796992  *   1.12406996  *
     3       C          4.26902270  *   0.43364851  *   0.45874156  *
     4       N          1.91853404  *   1.16261273  *   0.20412913  *
     5       C          1.62443744  *   0.38795486  *  -1.01756988  *
     6       C          0.92658968  *   1.32832126  *  -2.02526907  *
     7       O          0.66347685  *   0.62051346  *  -3.21435549  *
     8       C         -0.37013147  *   1.95519942  *  -1.48913082  *
     9       O         -0.98675950  *   1.15011696  *  -0.49459755  *
    10       C         -1.65466930  *   0.02992591  *  -0.88626235  *
    11       C         -2.11894238  *  -0.21664490  *  -2.17528297  *
    12       C         -2.82140959  *  -1.39603930  *  -2.42255806  *
    13       C         -3.05186148  *  -2.30712833  *  -1.39742318  *
    14       C         -2.58987195  *  -2.04177710  *  -0.10626888  *
    15       C         -1.88545628  *  -0.87544384  *   0.16823291  *
    16       C         -1.39231178  *  -0.57144227  *   1.54709385  *
    17       C         -2.24789208  *   0.48743608  *   2.17540481  *
    18       C         -2.84846911  *   0.32874944  *   3.35331223  *
    19       H          3.21033571  *  -1.27884593  *   2.30741714  *
    20       H          2.30766894  *  -1.56710420  *   0.82166707  *
    21       H          1.51644903  *  -0.79958795  *   2.20658882  *
    22       H          2.96389129  *   1.23039728  *   2.00053593  *
    23       H          4.32561032  *  -0.38698510  *  -0.26247846  *
    24       H          5.05230512  *   0.27434240  *   1.20557398  *
    25       H          4.50081093  *   1.36392143  *  -0.07752576  *
    26       H          1.04217731  *   1.37279589  *   0.68633601  *
    27       H          0.99154309  *  -0.50496137  *  -0.82624489  *
    28       H          2.57011196  *   0.01898753  *  -1.47112304  *
    29       H          1.62398977  *   2.12845736  *  -2.37345913  *
    30       H          0.17219970  *  -0.20953360  *  -3.04241811  *
    31       H         -1.07320669  *   2.19747196  *  -2.30398068  *
    32       H         -0.15860077  *   2.87546704  *  -0.90546561  *
    33       H         -1.95874809  *   0.49820488  *  -2.97934873  *
    34       H         -3.19169036  *  -1.59952580  *  -3.42674697  *
    35       H         -3.59689577  *  -3.22652105  *  -1.59622430  *
    36       H         -2.78567463  *  -2.75514359  *   0.69432154  *
    37       H         -1.36203806  *  -1.49014812  *   2.16984769  *
    38       H         -0.33741705  *  -0.21176058  *   1.50582979  *
    39       H         -2.34241424  *   1.40114305  *   1.58704336  *
    40       H         -2.77999684  *  -0.56699007  *   3.94910332  *
    41       H         -3.46345002  *   1.08763293  *   3.81074534  *

                             CARTESIAN COORDINATES

   1    C        2.451354383    -0.855818879     1.640883051
   2    C        2.887183806     0.527969922     1.124069964
   3    C        4.269022699     0.433648507     0.458741557
   4    N        1.918534041     1.162612734     0.204129132
   5    C        1.624437442     0.387954856    -1.017569877
   6    C        0.926589677     1.328321264    -2.025269071
   7    O        0.663476846     0.620513461    -3.214355493
   8    C       -0.370131471     1.955199417    -1.489130817
   9    O       -0.986759503     1.150116959    -0.494597547
  10    C       -1.654669297     0.029925911    -0.886262350
  11    C       -2.118942377    -0.216644896    -2.175282966
  12    C       -2.821409590    -1.396039300    -2.422558055
  13    C       -3.051861483    -2.307128327    -1.397423178
  14    C       -2.589871946    -2.041777104    -0.106268881
  15    C       -1.885456282    -0.875443840     0.168232914
  16    C       -1.392311785    -0.571442274     1.547093853
  17    C       -2.247892084     0.487436080     2.175404808
  18    C       -2.848469114     0.328749435     3.353312231
  19    H        3.210335708    -1.278845927     2.307417140
  20    H        2.307668937    -1.567104204     0.821667067
  21    H        1.516449030    -0.799587951     2.206588821
  22    H        2.963891290     1.230397280     2.000535934
  23    H        4.325610324    -0.386985104    -0.262478464
  24    H        5.052305121     0.274342396     1.205573977
  25    H        4.500810930     1.363921434    -0.077525763
  26    H        1.042177314     1.372795893     0.686336015
  27    H        0.991543088    -0.504961375    -0.826244888
  28    H        2.570111960     0.018987533    -1.471123036
  29    H        1.623989772     2.128457356    -2.373459131
  30    H        0.172199703    -0.209533597    -3.042418112
  31    H       -1.073206689     2.197471959    -2.303980678
  32    H       -0.158600769     2.875467036    -0.905465609
  33    H       -1.958748093     0.498204877    -2.979348733
  34    H       -3.191690362    -1.599525804    -3.426746969
  35    H       -3.596895768    -3.226521049    -1.596224300
  36    H       -2.785674626    -2.755143592     0.694321542
  37    H       -1.362038063    -1.490148124     2.169847688
  38    H       -0.337417050    -0.211760581     1.505829789
  39    H       -2.342414236     1.401143051     1.587043357
  40    H       -2.779996839    -0.566990073     3.949103319
  41    H       -3.463450019     1.087632933     3.810745343


           Empirical Formula: C15 H23 N O2  =    41 atoms



      MOLECULAR POINT GROUP   :   C1  


                  EIGENVALUES  
 -35.28171 -31.15833 -30.33632 -29.49116 -28.44771 -27.46524 -26.30576 -25.98982
 -25.36115 -24.14913 -23.86872 -23.41752 -21.62451 -20.41621 -20.22992 -19.42440
 -19.22949 -18.18542 -17.90190 -16.75418 -16.46156 -16.30429 -16.05362 -15.58232
 -15.44041 -15.25961 -14.88800 -14.76102 -14.45481 -14.27596 -13.98710 -13.95124
 -13.60313 -13.36844 -13.16943 -12.91745 -12.77347 -12.47548 -12.37558 -12.20413
 -12.10340 -11.91599 -11.81457 -11.61967 -11.41917 -10.70214 -10.12482  -9.85906
  -9.14529  -8.99485   0.04509   0.22989   1.19056   1.66039   2.42134   2.56716
   3.34339   3.69560   3.71303   3.86302   3.95582   4.09221   4.30786   4.37419
   4.40655   4.83530   4.87683   4.93989   5.00720   5.10230   5.27059   5.37682
   5.38683   5.58992   5.64041   5.65343   5.72084   5.79788   5.80840   5.90834
   5.95531   5.96752   6.00483   6.05484   6.11194   6.14279   6.18834   6.21750
   6.25394   6.29891   6.60582   6.75375   6.86037   6.89691   7.15402


              NET ATOMIC CHARGES AND DIPOLE CONTRIBUTIONS

  ATOM NO.   TYPE          CHARGE      No. of ELECS.   s-Pop       p-Pop       
    1          C          -0.503658        4.5037     1.06318     3.44047
    2          C           0.106367        3.8936     1.06303     2.83060
    3          C          -0.461799        4.4618     1.05816     3.40364
    4          N          -0.560352        5.5604     1.66366     3.89669
    5          C          -0.158331        4.1583     1.07327     3.08506
    6          C           0.116680        3.8833     1.09785     2.78547
    7          O          -0.566453        6.5665     1.84749     4.71896
    8          C          -0.100855        4.1009     1.10562     2.99524
    9          O          -0.352297        6.3523     1.86335     4.48894
   10          C           0.221019        3.7790     1.08592     2.69306
   11          C          -0.296551        4.2966     1.07726     3.21929
   12          C          -0.089123        4.0891     1.08325     3.00587
   13          C          -0.203434        4.2034     1.07777     3.12567
   14          C          -0.107078        4.1071     1.08612     3.02096
   15          C          -0.084289        4.0843     1.06412     3.02016
   16          C          -0.283842        4.2838     1.05045     3.23339
   17          C          -0.093052        4.0931     1.09207     3.00099
   18          C          -0.340148        4.3401     1.09211     3.24804
   19          H           0.152839        0.8472     0.84716
   20          H           0.151606        0.8484     0.84839
   21          H           0.144565        0.8554     0.85543
   22          H           0.132627        0.8674     0.86737
   23          H           0.144905        0.8551     0.85510
   24          H           0.141412        0.8586     0.85859
   25          H           0.161498        0.8385     0.83850
   26          H           0.265416        0.7346     0.73458
   27          H           0.122660        0.8773     0.87734
   28          H           0.155559        0.8444     0.84444
   29          H           0.160943        0.8391     0.83906
   30          H           0.322830        0.6772     0.67717
   31          H           0.147940        0.8521     0.85206
   32          H           0.161810        0.8382     0.83819
   33          H           0.173566        0.8264     0.82643
   34          H           0.150675        0.8493     0.84932
   35          H           0.154972        0.8450     0.84503
   36          H           0.155693        0.8443     0.84431
   37          H           0.154438        0.8456     0.84556
   38          H           0.159486        0.8405     0.84051
   39          H           0.152186        0.8478     0.84781
   40          H           0.143947        0.8561     0.85605
   41          H           0.145618        0.8544     0.85438
 DIPOLE           X         Y         Z       TOTAL
 POINT-CHG.     0.696    -0.634     0.724     1.187
 HYBRID        -0.745    -0.902     0.393     1.234
 SUM           -0.049    -1.536     1.117     1.899


          ATOMIC ORBITAL ELECTRON POPULATIONS

     Atom    s        px        py        pz   
    1  C   1.06318   1.17041   1.10137   1.16870
    2  C   1.06303   0.90724   0.95879   0.96457
    3  C   1.05816   1.06509   1.18442   1.15413
    4  N   1.66366   1.25366   1.49045   1.15259
    5  C   1.07327   1.12529   1.02099   0.93877
    6  C   1.09785   0.98261   0.96945   0.83341
    7  O   1.84749   1.82450   1.49254   1.40193
    8  C   1.10562   1.00957   0.97853   1.00713
    9  O   1.86335   1.68603   1.41248   1.39043
   10  C   1.08592   0.89350   0.83670   0.96286
   11  C   1.07726   1.09477   1.07332   1.05120
   12  C   1.08325   0.97077   0.97221   1.06290
   13  C   1.07777   1.06287   1.07175   0.99105
   14  C   1.08612   0.96888   1.01576   1.03632
   15  C   1.06412   1.05226   0.99088   0.97702
   16  C   1.05045   1.10601   1.10794   1.01943
   17  C   1.09207   0.96395   1.03765   0.99938
   18  C   1.09211   1.06508   1.13618   1.04677
   19  H   0.84716
   20  H   0.84839
   21  H   0.85543
   22  H   0.86737
   23  H   0.85510
   24  H   0.85859
   25  H   0.83850
   26  H   0.73458
   27  H   0.87734
   28  H   0.84444
   29  H   0.83906
   30  H   0.67717
   31  H   0.85206
   32  H   0.83819
   33  H   0.82643
   34  H   0.84932
   35  H   0.84503
   36  H   0.84431
   37  H   0.84556
   38  H   0.84051
   39  H   0.84781
   40  H   0.85605
   41  H   0.85438

 **********************
 *                    *
 * JOB ENDED NORMALLY *
 *                    *
 **********************



 TOTAL JOB TIME:             5.13 SECONDS

 == MOPAC DONE ==
