 *******************************************************************************
 **                                                                           **
 **                              MOPAC v23.0.3                                **
 **                                                                           **
 *******************************************************************************
 **          Digital Object Identifier (DOI): 10.5281/zenodo.6511958          **
 **    Visit the DOI location for information on how to cite this program.    **
 *******************************************************************************

                              PM7 CALCULATION RESULTS

 *******************************************************************************
 *  CALCULATION DONE:                                Fri Jul 25 19:52:24 2025  *
 *  PM7        - The PM7 Hamiltonian to be used
 *  XYZ        - CARTESIAN COORDINATE SYSTEM TO BE USED
 *  T=         - A TIME OF 172800.0 SECONDS REQUESTED
 *  DUMP=N     - RESTART FILE WRITTEN EVERY 7200.0 SECONDS REQUESTED
 *******************************************************************************
PM7 XYZ

 Lipophilicity_465 - geometry optimisation
   ATOM   CHEMICAL          X               Y               Z
  NUMBER   SYMBOL      (ANGSTROMS)     (ANGSTROMS)     (ANGSTROMS)

     1       C         -3.56234800  *   2.82494000  *  -1.47446800  *
     2       O         -4.36927100  *   1.73567700  *  -1.03737800  *
     3       C         -3.88478300  *   0.47226500  *  -0.66257200  *
     4       C         -2.50703100  *   0.18360700  *  -0.71484500  *
     5       C         -2.01735800  *  -1.07110700  *  -0.32836500  *
     6       N         -0.61391500  *  -1.37733600  *  -0.39573600  *
     7       C          0.42761800  *  -0.44129700  *  -0.07283600  *
     8       C          1.75683900  *  -0.73058700  *  -0.41053300  *
     9       C          2.77405500  *   0.16299600  *  -0.06199100  *
    10       O          4.09285400  *  -0.13779000  *  -0.43268600  *
    11       C          5.24599100  *   0.26974300  *   0.25701700  *
    12       C          5.25852100  *   0.41471400  *   1.65473200  *
    13       C          6.42851400  *   0.80420900  *   2.30712700  *
    14       C          7.58322800  *   1.03475900  *   1.55966900  *
    15       N          7.56406400  *   0.87269900  *   0.21058900  *
    16       C          6.43790000  *   0.49354200  *  -0.45484100  *
    17       C          6.48245200  *   0.33254700  *  -1.94294700  *
    18       C          2.44067900  *   1.35312200  *   0.60481200  *
    19       C          1.10833600  *   1.60338800  *   0.93653700  *
    20       N          0.14280500  *   0.70848800  *   0.60042700  *
    21       C         -2.91622800  *  -2.06276500  *   0.07114700  *
    22       C         -4.29574700  *  -1.80029900  *   0.13060200  *
    23       O         -5.21780900  *  -2.77597300  *   0.54423900  *
    24       C         -4.87302700  *  -4.10025400  *   0.93842700  *
    25       C         -4.78672200  *  -0.53399700  *  -0.22882500  *
    26       O         -6.17960100  *  -0.34730400  *  -0.13485500  *
    27       C         -6.89910400  *   0.84342100  *  -0.43523900  *
    28       H         -3.02307800  *   2.55156800  *  -2.40587200  *
    29       H         -4.21541600  *   3.69599300  *  -1.68663600  *
    30       H         -2.83971000  *   3.10847000  *  -0.68023200  *
    31       H         -1.81130600  *   0.92485600  *  -1.08007600  *
    32       H         -0.33857500  *  -2.36291200  *  -0.61088300  *
    33       H          2.00065800  *  -1.64480500  *  -0.93744600  *
    34       H          4.37215100  *   0.20843100  *   2.24005600  *
    35       H          6.44216500  *   0.91902400  *   3.38326600  *
    36       H          8.49788700  *   1.33597900  *   2.05252900  *
    37       H          5.76533300  *   1.03449900  *  -2.41824300  *
    38       H          6.21318600  *  -0.70927100  *  -2.21669200  *
    39       H          7.50101400  *   0.54918100  *  -2.32938800  *
    40       H          3.19752700  *   2.08603100  *   0.85112600  *
    41       H          0.84034100  *   2.51273700  *   1.45754900  *
    42       H         -2.52866700  *  -3.03439400  *   0.34635400  *
    43       H         -5.79722300  *  -4.64848900  *   1.21343300  *
    44       H         -4.38091800  *  -4.63321200  *   0.09760200  *
    45       H         -4.20026600  *  -4.07302600  *   1.82151900  *
    46       H         -6.77241600  *   1.11004100  *  -1.50550800  *
    47       H         -6.56552600  *   1.67164800  *   0.22467200  *
    48       H         -7.97807100  *   0.66624000  *  -0.24900600  *



          CARTESIAN COORDINATES 

    NO.       ATOM           X           Y           Z

     1         C         -3.5623      2.8249     -1.4745
     2         O         -4.3693      1.7357     -1.0374
     3         C         -3.8848      0.4723     -0.6626
     4         C         -2.5070      0.1836     -0.7148
     5         C         -2.0174     -1.0711     -0.3284
     6         N         -0.6139     -1.3773     -0.3957
     7         C          0.4276     -0.4413     -0.0728
     8         C          1.7568     -0.7306     -0.4105
     9         C          2.7741      0.1630     -0.0620
    10         O          4.0929     -0.1378     -0.4327
    11         C          5.2460      0.2697      0.2570
    12         C          5.2585      0.4147      1.6547
    13         C          6.4285      0.8042      2.3071
    14         C          7.5832      1.0348      1.5597
    15         N          7.5641      0.8727      0.2106
    16         C          6.4379      0.4935     -0.4548
    17         C          6.4825      0.3325     -1.9429
    18         C          2.4407      1.3531      0.6048
    19         C          1.1083      1.6034      0.9365
    20         N          0.1428      0.7085      0.6004
    21         C         -2.9162     -2.0628      0.0711
    22         C         -4.2957     -1.8003      0.1306
    23         O         -5.2178     -2.7760      0.5442
    24         C         -4.8730     -4.1003      0.9384
    25         C         -4.7867     -0.5340     -0.2288
    26         O         -6.1796     -0.3473     -0.1349
    27         C         -6.8991      0.8434     -0.4352
    28         H         -3.0231      2.5516     -2.4059
    29         H         -4.2154      3.6960     -1.6866
    30         H         -2.8397      3.1085     -0.6802
    31         H         -1.8113      0.9249     -1.0801
    32         H         -0.3386     -2.3629     -0.6109
    33         H          2.0007     -1.6448     -0.9374
    34         H          4.3722      0.2084      2.2401
    35         H          6.4422      0.9190      3.3833
    36         H          8.4979      1.3360      2.0525
    37         H          5.7653      1.0345     -2.4182
    38         H          6.2132     -0.7093     -2.2167
    39         H          7.5010      0.5492     -2.3294
    40         H          3.1975      2.0860      0.8511
    41         H          0.8403      2.5127      1.4575
    42         H         -2.5287     -3.0344      0.3464
    43         H         -5.7972     -4.6485      1.2134
    44         H         -4.3809     -4.6332      0.0976
    45         H         -4.2003     -4.0730      1.8215
    46         H         -6.7724      1.1100     -1.5055
    47         H         -6.5655      1.6716      0.2247
    48         H         -7.9781      0.6662     -0.2490

 General Reference for PM7:
 "Optimization of Parameters for Semiempirical Methods VI: More Modifications to the 
 NDDO Approximations and Re-optimization of Parameters", J. J. P. Stewart, J. Mol. Mod., 1:32, 19 (2013)
 https://link.springer.com/article/10.1007/s00894-012-1667-x

           Empirical Formula: C20 H21 N3 O4  =    48 atoms



      MOLECULAR POINT GROUP   :   C1  


      RHF CALCULATION, NO. OF DOUBLY OCCUPIED LEVELS = 70


          Geometry optimization using L-BFGS
 CYCLE:     1 TIME:   0.062 TIME LEFT:  2.00D  GRAD.:   173.922 HEAT: -28.85715
 CYCLE:     2 TIME:   0.031 TIME LEFT:  2.00D  GRAD.:   171.008 HEAT: -29.15711
 CYCLE:     3 TIME:   0.039 TIME LEFT:  2.00D  GRAD.:    66.402 HEAT: -41.33819
 CYCLE:     4 TIME:   0.047 TIME LEFT:  2.00D  GRAD.:   171.101 HEAT: -29.15729
 CYCLE:     5 TIME:   0.039 TIME LEFT:  2.00D  GRAD.:    66.396 HEAT: -41.33968
 CYCLE:     6 TIME:   0.039 TIME LEFT:  2.00D  GRAD.:    63.932 HEAT: -44.10896
 CYCLE:     7 TIME:   0.031 TIME LEFT:  2.00D  GRAD.:    81.636 HEAT: -49.42774
 CYCLE:     8 TIME:   0.039 TIME LEFT:  2.00D  GRAD.:   136.583 HEAT: -49.90994
 CYCLE:     9 TIME:   0.031 TIME LEFT:  2.00D  GRAD.:    41.128 HEAT: -53.28050
 CYCLE:    10 TIME:   0.039 TIME LEFT:  2.00D  GRAD.:    29.828 HEAT: -54.21245
 CYCLE:    11 TIME:   0.031 TIME LEFT:  2.00D  GRAD.:    37.503 HEAT: -55.62349
 CYCLE:    12 TIME:   0.031 TIME LEFT:  2.00D  GRAD.:    44.013 HEAT: -56.77265
 CYCLE:    13 TIME:   0.039 TIME LEFT:  2.00D  GRAD.:    41.108 HEAT: -57.41094
 CYCLE:    14 TIME:   0.031 TIME LEFT:  2.00D  GRAD.:    16.334 HEAT: -57.94088
 CYCLE:    15 TIME:   0.031 TIME LEFT:  2.00D  GRAD.:    15.962 HEAT: -58.16498
 CYCLE:    16 TIME:   0.031 TIME LEFT:  2.00D  GRAD.:    17.891 HEAT: -58.47644
 CYCLE:    17 TIME:   0.039 TIME LEFT:  2.00D  GRAD.:    50.179 HEAT: -58.43301
 CYCLE:    18 TIME:   0.031 TIME LEFT:  2.00D  GRAD.:    11.967 HEAT: -58.89352
 CYCLE:    19 TIME:   0.031 TIME LEFT:  2.00D  GRAD.:     8.712 HEAT: -58.96817
 CYCLE:    20 TIME:   0.031 TIME LEFT:  2.00D  GRAD.:    10.537 HEAT: -59.08876
 CYCLE:    21 TIME:   0.031 TIME LEFT:  2.00D  GRAD.:    15.469 HEAT: -59.21165
 CYCLE:    22 TIME:   0.031 TIME LEFT:  2.00D  GRAD.:    10.929 HEAT: -59.34188
 CYCLE:    23 TIME:   0.031 TIME LEFT:  2.00D  GRAD.:     9.430 HEAT: -59.44769
 CYCLE:    24 TIME:   0.039 TIME LEFT:  2.00D  GRAD.:    12.269 HEAT: -59.57990
 CYCLE:    25 TIME:   0.031 TIME LEFT:  2.00D  GRAD.:    14.617 HEAT: -59.72154
 CYCLE:    26 TIME:   0.031 TIME LEFT:  2.00D  GRAD.:    12.540 HEAT: -59.88063
 CYCLE:    27 TIME:   0.031 TIME LEFT:  2.00D  GRAD.:    11.114 HEAT: -59.98417
 CYCLE:    28 TIME:   0.031 TIME LEFT:  2.00D  GRAD.:     7.644 HEAT: -60.03778
 CYCLE:    29 TIME:   0.031 TIME LEFT:  2.00D  GRAD.:     6.038 HEAT: -60.07462
 CYCLE:    30 TIME:   0.039 TIME LEFT:  2.00D  GRAD.:     7.327 HEAT: -60.12391
 CYCLE:    31 TIME:   0.031 TIME LEFT:  2.00D  GRAD.:     9.503 HEAT: -60.15690
 CYCLE:    32 TIME:   0.031 TIME LEFT:  2.00D  GRAD.:     5.883 HEAT: -60.18932
 CYCLE:    33 TIME:   0.031 TIME LEFT:  2.00D  GRAD.:     5.382 HEAT: -60.23399
 CYCLE:    34 TIME:   0.031 TIME LEFT:  2.00D  GRAD.:     6.822 HEAT: -60.27237
 CYCLE:    35 TIME:   0.031 TIME LEFT:  2.00D  GRAD.:    16.385 HEAT: -60.29411
 CYCLE:    36 TIME:   0.039 TIME LEFT:  2.00D  GRAD.:     5.694 HEAT: -60.35683
 CYCLE:    37 TIME:   0.031 TIME LEFT:  2.00D  GRAD.:     4.689 HEAT: -60.38102
 CYCLE:    38 TIME:   0.031 TIME LEFT:  2.00D  GRAD.:     5.090 HEAT: -60.41223
 CYCLE:    39 TIME:   0.031 TIME LEFT:  2.00D  GRAD.:     8.277 HEAT: -60.44123
 CYCLE:    40 TIME:   0.031 TIME LEFT:  2.00D  GRAD.:     4.731 HEAT: -60.46364
 CYCLE:    41 TIME:   0.031 TIME LEFT:  2.00D  GRAD.:     3.217 HEAT: -60.47735
 CYCLE:    42 TIME:   0.039 TIME LEFT:  2.00D  GRAD.:     3.822 HEAT: -60.49296
 CYCLE:    43 TIME:   0.031 TIME LEFT:  2.00D  GRAD.:     6.452 HEAT: -60.50634
 CYCLE:    44 TIME:   0.031 TIME LEFT:  2.00D  GRAD.:     4.571 HEAT: -60.52350
 CYCLE:    45 TIME:   0.031 TIME LEFT:  2.00D  GRAD.:     4.978 HEAT: -60.54033
 CYCLE:    46 TIME:   0.031 TIME LEFT:  2.00D  GRAD.:     4.472 HEAT: -60.55202
 CYCLE:    47 TIME:   0.031 TIME LEFT:  2.00D  GRAD.:     3.900 HEAT: -60.56363
 CYCLE:    48 TIME:   0.031 TIME LEFT:  2.00D  GRAD.:     7.495 HEAT: -60.57975
 CYCLE:    49 TIME:   0.031 TIME LEFT:  2.00D  GRAD.:     4.056 HEAT: -60.59883
 CYCLE:    50 TIME:   0.031 TIME LEFT:  2.00D  GRAD.:     4.197 HEAT: -60.61048
 CYCLE:    51 TIME:   0.039 TIME LEFT:  2.00D  GRAD.:     5.614 HEAT: -60.63003
 CYCLE:    52 TIME:   0.031 TIME LEFT:  2.00D  GRAD.:     4.758 HEAT: -60.65573
 CYCLE:    53 TIME:   0.039 TIME LEFT:  2.00D  GRAD.:     5.592 HEAT: -60.67164
 CYCLE:    54 TIME:   0.031 TIME LEFT:  2.00D  GRAD.:    10.823 HEAT: -60.67275
 CYCLE:    55 TIME:   0.039 TIME LEFT:  2.00D  GRAD.:     7.489 HEAT: -60.71045
 CYCLE:    56 TIME:   0.031 TIME LEFT:  2.00D  GRAD.:     3.546 HEAT: -60.71533
 CYCLE:    57 TIME:   0.039 TIME LEFT:  2.00D  GRAD.:     3.271 HEAT: -60.72934
 CYCLE:    58 TIME:   0.039 TIME LEFT:  2.00D  GRAD.:     4.730 HEAT: -60.73603
 CYCLE:    59 TIME:   0.031 TIME LEFT:  2.00D  GRAD.:    19.775 HEAT: -60.70674
 CYCLE:    60 TIME:   0.031 TIME LEFT:  2.00D  GRAD.:     4.595 HEAT: -60.77514
 CYCLE:    61 TIME:   0.031 TIME LEFT:  2.00D  GRAD.:     2.872 HEAT: -60.79265
 CYCLE:    62 TIME:   0.039 TIME LEFT:  2.00D  GRAD.:     6.664 HEAT: -60.82111
 CYCLE:    63 TIME:   0.031 TIME LEFT:  2.00D  GRAD.:     9.113 HEAT: -60.85683
 CYCLE:    64 TIME:   0.031 TIME LEFT:  2.00D  GRAD.:     7.371 HEAT: -60.89671
 CYCLE:    65 TIME:   0.031 TIME LEFT:  2.00D  GRAD.:     8.138 HEAT: -60.92996
 CYCLE:    66 TIME:   0.039 TIME LEFT:  2.00D  GRAD.:     9.626 HEAT: -60.96130
 CYCLE:    67 TIME:   0.039 TIME LEFT:  2.00D  GRAD.:    75.627 HEAT: -59.87641
 CYCLE:    68 TIME:   0.039 TIME LEFT:  2.00D  GRAD.:     6.795 HEAT: -61.04052
 CYCLE:    69 TIME:   0.039 TIME LEFT:  2.00D  GRAD.:     6.581 HEAT: -61.06306
 CYCLE:    70 TIME:   0.031 TIME LEFT:  2.00D  GRAD.:    10.619 HEAT: -61.08301
 CYCLE:    71 TIME:   0.031 TIME LEFT:  2.00D  GRAD.:     4.591 HEAT: -61.11857
 CYCLE:    72 TIME:   0.039 TIME LEFT:  2.00D  GRAD.:     3.543 HEAT: -61.13776
 CYCLE:    73 TIME:   0.039 TIME LEFT:  2.00D  GRAD.:     6.715 HEAT: -61.14484
 CYCLE:    74 TIME:   0.031 TIME LEFT:  2.00D  GRAD.:    17.467 HEAT: -61.11870
 CYCLE:    75 TIME:   0.039 TIME LEFT:  2.00D  GRAD.:     7.807 HEAT: -61.18542
 CYCLE:    76 TIME:   0.031 TIME LEFT:  2.00D  GRAD.:     2.693 HEAT: -61.20802
 CYCLE:    77 TIME:   0.039 TIME LEFT:  2.00D  GRAD.:     3.762 HEAT: -61.21311
 CYCLE:    78 TIME:   0.031 TIME LEFT:  2.00D  GRAD.:     7.797 HEAT: -61.23038
 CYCLE:    79 TIME:   0.031 TIME LEFT:  2.00D  GRAD.:     3.718 HEAT: -61.25070
 CYCLE:    80 TIME:   0.039 TIME LEFT:  2.00D  GRAD.:     3.384 HEAT: -61.26615
 CYCLE:    81 TIME:   0.031 TIME LEFT:  2.00D  GRAD.:     5.784 HEAT: -61.28593
 CYCLE:    82 TIME:   0.031 TIME LEFT:  2.00D  GRAD.:     9.609 HEAT: -61.29492
 CYCLE:    83 TIME:   0.039 TIME LEFT:  2.00D  GRAD.:     4.591 HEAT: -61.31408
 CYCLE:    84 TIME:   0.031 TIME LEFT:  2.00D  GRAD.:     3.748 HEAT: -61.32726
 CYCLE:    85 TIME:   0.031 TIME LEFT:  2.00D  GRAD.:     4.512 HEAT: -61.33346
 CYCLE:    86 TIME:   0.039 TIME LEFT:  2.00D  GRAD.:     5.867 HEAT: -61.35957
 CYCLE:    87 TIME:   0.039 TIME LEFT:  2.00D  GRAD.:     8.739 HEAT: -61.36769
 CYCLE:    88 TIME:   0.031 TIME LEFT:  2.00D  GRAD.:     3.904 HEAT: -61.38828
 CYCLE:    89 TIME:   0.039 TIME LEFT:  2.00D  GRAD.:     2.790 HEAT: -61.39438
 CYCLE:    90 TIME:   0.031 TIME LEFT:  2.00D  GRAD.:     3.103 HEAT: -61.40609
 CYCLE:    91 TIME:   0.031 TIME LEFT:  2.00D  GRAD.:     6.380 HEAT: -61.42422
 CYCLE:    92 TIME:   0.039 TIME LEFT:  2.00D  GRAD.:     4.681 HEAT: -61.43708
 CYCLE:    93 TIME:   0.031 TIME LEFT:  2.00D  GRAD.:     4.489 HEAT: -61.44763
 CYCLE:    94 TIME:   0.039 TIME LEFT:  2.00D  GRAD.:     4.952 HEAT: -61.45573
 CYCLE:    95 TIME:   0.039 TIME LEFT:  2.00D  GRAD.:    23.378 HEAT: -61.36984
 CYCLE:    96 TIME:   0.031 TIME LEFT:  2.00D  GRAD.:     2.178 HEAT: -61.47126
 CYCLE:    97 TIME:   0.039 TIME LEFT:  2.00D  GRAD.:     2.781 HEAT: -61.47913
 CYCLE:    98 TIME:   0.039 TIME LEFT:  2.00D  GRAD.:     4.607 HEAT: -61.49613
 CYCLE:    99 TIME:   0.031 TIME LEFT:  2.00D  GRAD.:     5.183 HEAT: -61.50662
 CYCLE:   100 TIME:   0.039 TIME LEFT:  2.00D  GRAD.:     3.627 HEAT: -61.51773
 CYCLE:   101 TIME:   0.031 TIME LEFT:  2.00D  GRAD.:     4.716 HEAT: -61.52973
 CYCLE:   102 TIME:   0.039 TIME LEFT:  2.00D  GRAD.:     7.279 HEAT: -61.53947
 CYCLE:   103 TIME:   0.031 TIME LEFT:  2.00D  GRAD.:     2.688 HEAT: -61.55253
 CYCLE:   104 TIME:   0.031 TIME LEFT:  2.00D  GRAD.:     2.291 HEAT: -61.55826
 CYCLE:   105 TIME:   0.039 TIME LEFT:  2.00D  GRAD.:     3.675 HEAT: -61.56485
 CYCLE:   106 TIME:   0.039 TIME LEFT:  2.00D  GRAD.:    16.894 HEAT: -61.52675
 CYCLE:   107 TIME:   0.031 TIME LEFT:  2.00D  GRAD.:     2.109 HEAT: -61.57806
 CYCLE:   108 TIME:   0.039 TIME LEFT:  2.00D  GRAD.:     2.086 HEAT: -61.58388
 CYCLE:   109 TIME:   0.039 TIME LEFT:  2.00D  GRAD.:     2.680 HEAT: -61.59420
 CYCLE:   110 TIME:   0.031 TIME LEFT:  2.00D  GRAD.:     5.674 HEAT: -61.60547
 CYCLE:   111 TIME:   0.039 TIME LEFT:  2.00D  GRAD.:    37.417 HEAT: -61.34842
 CYCLE:   112 TIME:   0.031 TIME LEFT:  2.00D  GRAD.:     8.280 HEAT: -61.59669
 CYCLE:   113 TIME:   0.039 TIME LEFT:  2.00D  GRAD.:     4.624 HEAT: -61.62888
 CYCLE:   114 TIME:   0.039 TIME LEFT:  2.00D  GRAD.:     4.166 HEAT: -61.63814
 CYCLE:   115 TIME:   0.031 TIME LEFT:  2.00D  GRAD.:     3.828 HEAT: -61.65079
 CYCLE:   116 TIME:   0.031 TIME LEFT:  2.00D  GRAD.:     5.662 HEAT: -61.67462
 CYCLE:   117 TIME:   0.039 TIME LEFT:  2.00D  GRAD.:    10.277 HEAT: -61.67888
 CYCLE:   118 TIME:   0.031 TIME LEFT:  2.00D  GRAD.:    11.734 HEAT: -61.69154
 CYCLE:   119 TIME:   0.039 TIME LEFT:  2.00D  GRAD.:     3.052 HEAT: -61.71615
 CYCLE:   120 TIME:   0.031 TIME LEFT:  2.00D  GRAD.:     2.235 HEAT: -61.72392
 CYCLE:   121 TIME:   0.039 TIME LEFT:  2.00D  GRAD.:    10.729 HEAT: -61.72782
 CYCLE:   122 TIME:   0.039 TIME LEFT:  2.00D  GRAD.:     6.851 HEAT: -61.72220
 CYCLE:   123 TIME:   0.039 TIME LEFT:  2.00D  GRAD.:    16.254 HEAT: -61.71766
 CYCLE:   124 TIME:   0.039 TIME LEFT:  2.00D  GRAD.:    14.347 HEAT: -61.69467
 CYCLE:   125 TIME:   0.031 TIME LEFT:  2.00D  GRAD.:    17.504 HEAT: -61.72712
 CYCLE:   126 TIME:   0.039 TIME LEFT:  2.00D  GRAD.:     6.351 HEAT: -61.76579
 CYCLE:   127 TIME:   0.031 TIME LEFT:  2.00D  GRAD.:     3.221 HEAT: -61.76857
 CYCLE:   128 TIME:   0.031 TIME LEFT:  2.00D  GRAD.:     3.028 HEAT: -61.77746
 CYCLE:   129 TIME:   0.039 TIME LEFT:  2.00D  GRAD.:     3.952 HEAT: -61.78568
 CYCLE:   130 TIME:   0.039 TIME LEFT:  2.00D  GRAD.:    11.030 HEAT: -61.77325
 CYCLE:   131 TIME:   0.031 TIME LEFT:  2.00D  GRAD.:     7.307 HEAT: -61.81127
 CYCLE:   132 TIME:   0.031 TIME LEFT:  2.00D  GRAD.:    15.172 HEAT: -61.78883
 CYCLE:   133 TIME:   0.039 TIME LEFT:  2.00D  GRAD.:     3.022 HEAT: -61.83177
 CYCLE:   134 TIME:   0.031 TIME LEFT:  2.00D  GRAD.:     2.328 HEAT: -61.83915
 CYCLE:   135 TIME:   0.039 TIME LEFT:  2.00D  GRAD.:     2.949 HEAT: -61.85657
 CYCLE:   136 TIME:   0.031 TIME LEFT:  2.00D  GRAD.:    20.284 HEAT: -61.81572
 CYCLE:   137 TIME:   0.039 TIME LEFT:  2.00D  GRAD.:     4.735 HEAT: -61.87696
 CYCLE:   138 TIME:   0.031 TIME LEFT:  2.00D  GRAD.:     3.060 HEAT: -61.88644
 CYCLE:   139 TIME:   0.039 TIME LEFT:  2.00D  GRAD.:    11.539 HEAT: -61.86537
 CYCLE:   140 TIME:   0.031 TIME LEFT:  2.00D  GRAD.:     9.567 HEAT: -61.87238
 CYCLE:   141 TIME:   0.047 TIME LEFT:  2.00D  GRAD.:    15.428 HEAT: -61.87628
 CYCLE:   142 TIME:   0.031 TIME LEFT:  2.00D  GRAD.:     6.732 HEAT: -61.92564
 CYCLE:   143 TIME:   0.031 TIME LEFT:  2.00D  GRAD.:     3.205 HEAT: -61.93441
 CYCLE:   144 TIME:   0.031 TIME LEFT:  2.00D  GRAD.:     3.030 HEAT: -61.94262
 CYCLE:   145 TIME:   0.039 TIME LEFT:  2.00D  GRAD.:     3.327 HEAT: -61.94995
 CYCLE:   146 TIME:   0.039 TIME LEFT:  2.00D  GRAD.:    10.864 HEAT: -61.96540
 CYCLE:   147 TIME:   0.031 TIME LEFT:  2.00D  GRAD.:     3.936 HEAT: -61.99271
 CYCLE:   148 TIME:   0.031 TIME LEFT:  2.00D  GRAD.:     3.437 HEAT: -62.00762
 CYCLE:   149 TIME:   0.039 TIME LEFT:  2.00D  GRAD.:     7.021 HEAT: -62.02484
 CYCLE:   150 TIME:   0.031 TIME LEFT:  2.00D  GRAD.:    15.846 HEAT: -62.00818
 CYCLE:   151 TIME:   0.031 TIME LEFT:  2.00D  GRAD.:     4.453 HEAT: -62.05903
 CYCLE:   152 TIME:   0.031 TIME LEFT:  2.00D  GRAD.:     2.730 HEAT: -62.07346
 CYCLE:   153 TIME:   0.039 TIME LEFT:  2.00D  GRAD.:     7.047 HEAT: -62.09242
 CYCLE:   154 TIME:   0.039 TIME LEFT:  2.00D  GRAD.:    25.199 HEAT: -61.96822
 CYCLE:   155 TIME:   0.039 TIME LEFT:  2.00D  GRAD.:     3.851 HEAT: -62.12537
 CYCLE:   156 TIME:   0.039 TIME LEFT:  2.00D  GRAD.:    11.630 HEAT: -62.11513
 CYCLE:   157 TIME:   0.031 TIME LEFT:  2.00D  GRAD.:     4.260 HEAT: -62.15654
 CYCLE:   158 TIME:   0.031 TIME LEFT:  2.00D  GRAD.:     5.667 HEAT: -62.16167
 CYCLE:   159 TIME:   0.031 TIME LEFT:  2.00D  GRAD.:     3.631 HEAT: -62.17357
 CYCLE:   160 TIME:   0.039 TIME LEFT:  2.00D  GRAD.:     8.452 HEAT: -62.19827
 CYCLE:   161 TIME:   0.031 TIME LEFT:  2.00D  GRAD.:     4.802 HEAT: -62.22150
 CYCLE:   162 TIME:   0.039 TIME LEFT:  2.00D  GRAD.:     4.297 HEAT: -62.23638
 CYCLE:   163 TIME:   0.031 TIME LEFT:  2.00D  GRAD.:     6.577 HEAT: -62.25893
 CYCLE:   164 TIME:   0.039 TIME LEFT:  2.00D  GRAD.:     7.496 HEAT: -62.27039
 CYCLE:   165 TIME:   0.031 TIME LEFT:  2.00D  GRAD.:    10.034 HEAT: -62.27705
 CYCLE:   166 TIME:   0.031 TIME LEFT:  2.00D  GRAD.:     3.395 HEAT: -62.29602
 CYCLE:   167 TIME:   0.031 TIME LEFT:  2.00D  GRAD.:     1.746 HEAT: -62.30163
 CYCLE:   168 TIME:   0.047 TIME LEFT:  2.00D  GRAD.:    18.631 HEAT: -62.23755
 CYCLE:   169 TIME:   0.039 TIME LEFT:  2.00D  GRAD.:     5.215 HEAT: -62.29749
 CYCLE:   170 TIME:   0.031 TIME LEFT:  2.00D  GRAD.:     3.755 HEAT: -62.31461
 CYCLE:   171 TIME:   0.031 TIME LEFT:  2.00D  GRAD.:     4.065 HEAT: -62.31842
 CYCLE:   172 TIME:   0.039 TIME LEFT:  2.00D  GRAD.:     9.308 HEAT: -62.31587
 CYCLE:   173 TIME:   0.031 TIME LEFT:  2.00D  GRAD.:     3.075 HEAT: -62.33169
 CYCLE:   174 TIME:   0.031 TIME LEFT:  2.00D  GRAD.:     2.208 HEAT: -62.33777
 CYCLE:   175 TIME:   0.031 TIME LEFT:  2.00D  GRAD.:     2.259 HEAT: -62.34131
 CYCLE:   176 TIME:   0.039 TIME LEFT:  2.00D  GRAD.:     3.633 HEAT: -62.34914
 CYCLE:   177 TIME:   0.031 TIME LEFT:  2.00D  GRAD.:     5.456 HEAT: -62.35773
 CYCLE:   178 TIME:   0.039 TIME LEFT:  2.00D  GRAD.:     6.454 HEAT: -62.36328
 CYCLE:   179 TIME:   0.031 TIME LEFT:  2.00D  GRAD.:     3.218 HEAT: -62.37627
 CYCLE:   180 TIME:   0.031 TIME LEFT:  2.00D  GRAD.:     4.057 HEAT: -62.38939
 CYCLE:   181 TIME:   0.031 TIME LEFT:  2.00D  GRAD.:     4.736 HEAT: -62.39832
 CYCLE:   182 TIME:   0.039 TIME LEFT:  2.00D  GRAD.:     6.755 HEAT: -62.41162
 CYCLE:   183 TIME:   0.031 TIME LEFT:  2.00D  GRAD.:    12.463 HEAT: -62.40497
 CYCLE:   184 TIME:   0.031 TIME LEFT:  2.00D  GRAD.:     4.043 HEAT: -62.44093
 CYCLE:   185 TIME:   0.039 TIME LEFT:  2.00D  GRAD.:     3.199 HEAT: -62.44692
 CYCLE:   186 TIME:   0.031 TIME LEFT:  2.00D  GRAD.:     2.820 HEAT: -62.45908
 CYCLE:   187 TIME:   0.039 TIME LEFT:  2.00D  GRAD.:     4.760 HEAT: -62.46954
 CYCLE:   188 TIME:   0.039 TIME LEFT:  2.00D  GRAD.:    60.748 HEAT: -61.78316
 CYCLE:   189 TIME:   0.039 TIME LEFT:  2.00D  GRAD.:    35.953 HEAT: -62.17717
 CYCLE:   190 TIME:   0.039 TIME LEFT:  2.00D  GRAD.:    13.958 HEAT: -62.43163
 CYCLE:   191 TIME:   0.031 TIME LEFT:  2.00D  GRAD.:     7.850 HEAT: -62.46914
 CYCLE:   192 TIME:   0.039 TIME LEFT:  2.00D  GRAD.:    13.457 HEAT: -62.44018
 CYCLE:   193 TIME:   0.039 TIME LEFT:  2.00D  GRAD.:     7.728 HEAT: -62.48284
 CYCLE:   194 TIME:   0.031 TIME LEFT:  2.00D  GRAD.:     3.176 HEAT: -62.50867
 CYCLE:   195 TIME:   0.039 TIME LEFT:  2.00D  GRAD.:     5.049 HEAT: -62.51046
 CYCLE:   196 TIME:   0.031 TIME LEFT:  2.00D  GRAD.:     3.991 HEAT: -62.52032
 CYCLE:   197 TIME:   0.031 TIME LEFT:  2.00D  GRAD.:     4.050 HEAT: -62.52981
 CYCLE:   198 TIME:   0.031 TIME LEFT:  2.00D  GRAD.:     3.212 HEAT: -62.54183
 CYCLE:   199 TIME:   0.039 TIME LEFT:  2.00D  GRAD.:    13.704 HEAT: -62.47063
 CYCLE:   200 TIME:   0.039 TIME LEFT:  2.00D  GRAD.:    22.136 HEAT: -62.45110
 CYCLE:   201 TIME:   0.031 TIME LEFT:  2.00D  GRAD.:    12.469 HEAT: -62.53588
 CYCLE:   202 TIME:   0.031 TIME LEFT:  2.00D  GRAD.:     2.529 HEAT: -62.58154
 CYCLE:   203 TIME:   0.039 TIME LEFT:  2.00D  GRAD.:     2.461 HEAT: -62.58589
 CYCLE:   204 TIME:   0.039 TIME LEFT:  2.00D  GRAD.:     3.423 HEAT: -62.59260
 CYCLE:   205 TIME:   0.031 TIME LEFT:  2.00D  GRAD.:     4.032 HEAT: -62.60797
 CYCLE:   206 TIME:   0.031 TIME LEFT:  2.00D  GRAD.:     5.788 HEAT: -62.62124
 CYCLE:   207 TIME:   0.031 TIME LEFT:  2.00D  GRAD.:     4.489 HEAT: -62.63574
 CYCLE:   208 TIME:   0.039 TIME LEFT:  2.00D  GRAD.:     3.059 HEAT: -62.64567
 CYCLE:   209 TIME:   0.031 TIME LEFT:  2.00D  GRAD.:     3.239 HEAT: -62.65726
 CYCLE:   210 TIME:   0.039 TIME LEFT:  2.00D  GRAD.:     6.560 HEAT: -62.66525
 CYCLE:   211 TIME:   0.031 TIME LEFT:  2.00D  GRAD.:     3.063 HEAT: -62.67910
 CYCLE:   212 TIME:   0.031 TIME LEFT:  2.00D  GRAD.:     3.271 HEAT: -62.69440
 CYCLE:   213 TIME:   0.031 TIME LEFT:  2.00D  GRAD.:     3.671 HEAT: -62.70597
 CYCLE:   214 TIME:   0.039 TIME LEFT:  2.00D  GRAD.:    14.552 HEAT: -62.67166
 CYCLE:   215 TIME:   0.031 TIME LEFT:  2.00D  GRAD.:     2.561 HEAT: -62.72116
 CYCLE:   216 TIME:   0.039 TIME LEFT:  2.00D  GRAD.:     1.984 HEAT: -62.72693
 CYCLE:   217 TIME:   0.039 TIME LEFT:  2.00D  GRAD.:     4.405 HEAT: -62.73411
 CYCLE:   218 TIME:   0.031 TIME LEFT:  2.00D  GRAD.:    15.964 HEAT: -62.68592
 CYCLE:   219 TIME:   0.031 TIME LEFT:  2.00D  GRAD.:     3.215 HEAT: -62.75412
 CYCLE:   220 TIME:   0.039 TIME LEFT:  2.00D  GRAD.:     4.490 HEAT: -62.76104
 CYCLE:   221 TIME:   0.031 TIME LEFT:  2.00D  GRAD.:     5.724 HEAT: -62.77054
 CYCLE:   222 TIME:   0.031 TIME LEFT:  2.00D  GRAD.:     4.136 HEAT: -62.79541
 CYCLE:   223 TIME:   0.031 TIME LEFT:  2.00D  GRAD.:     4.841 HEAT: -62.81049
 CYCLE:   224 TIME:   0.039 TIME LEFT:  2.00D  GRAD.:     4.813 HEAT: -62.82356
 CYCLE:   225 TIME:   0.031 TIME LEFT:  2.00D  GRAD.:     3.981 HEAT: -62.83852
 CYCLE:   226 TIME:   0.031 TIME LEFT:  2.00D  GRAD.:     5.229 HEAT: -62.83992
 CYCLE:   227 TIME:   0.031 TIME LEFT:  2.00D  GRAD.:     9.417 HEAT: -62.84966
 CYCLE:   228 TIME:   0.039 TIME LEFT:  2.00D  GRAD.:     3.167 HEAT: -62.86898
 CYCLE:   229 TIME:   0.031 TIME LEFT:  2.00D  GRAD.:     2.225 HEAT: -62.87470
 CYCLE:   230 TIME:   0.039 TIME LEFT:  2.00D  GRAD.:     2.989 HEAT: -62.88307
 CYCLE:   231 TIME:   0.031 TIME LEFT:  2.00D  GRAD.:     4.065 HEAT: -62.89379
 CYCLE:   232 TIME:   0.031 TIME LEFT:  2.00D  GRAD.:     6.935 HEAT: -62.89561
 CYCLE:   233 TIME:   0.031 TIME LEFT:  2.00D  GRAD.:     2.058 HEAT: -62.90847
 CYCLE:   234 TIME:   0.039 TIME LEFT:  2.00D  GRAD.:     1.781 HEAT: -62.91139
 CYCLE:   235 TIME:   0.031 TIME LEFT:  2.00D  GRAD.:     2.028 HEAT: -62.91617
 CYCLE:   236 TIME:   0.039 TIME LEFT:  2.00D  GRAD.:     4.490 HEAT: -62.91816
 CYCLE:   237 TIME:   0.031 TIME LEFT:  2.00D  GRAD.:     2.260 HEAT: -62.92392
 CYCLE:   238 TIME:   0.031 TIME LEFT:  2.00D  GRAD.:     1.366 HEAT: -62.92608
 CYCLE:   239 TIME:   0.031 TIME LEFT:  2.00D  GRAD.:     1.160 HEAT: -62.92938
 CYCLE:   240 TIME:   0.039 TIME LEFT:  2.00D  GRAD.:     4.950 HEAT: -62.93173
 CYCLE:   241 TIME:   0.031 TIME LEFT:  2.00D  GRAD.:     2.020 HEAT: -62.93821
 CYCLE:   242 TIME:   0.039 TIME LEFT:  2.00D  GRAD.:     1.628 HEAT: -62.94073
 CYCLE:   243 TIME:   0.031 TIME LEFT:  2.00D  GRAD.:     2.651 HEAT: -62.94474
 CYCLE:   244 TIME:   0.031 TIME LEFT:  2.00D  GRAD.:     3.175 HEAT: -62.94936
 CYCLE:   245 TIME:   0.031 TIME LEFT:  2.00D  GRAD.:     1.996 HEAT: -62.95446
 CYCLE:   246 TIME:   0.039 TIME LEFT:  2.00D  GRAD.:     2.379 HEAT: -62.95885
 CYCLE:   247 TIME:   0.031 TIME LEFT:  2.00D  GRAD.:     3.020 HEAT: -62.96138
 CYCLE:   248 TIME:   0.039 TIME LEFT:  2.00D  GRAD.:     2.348 HEAT: -62.96550
 CYCLE:   249 TIME:   0.031 TIME LEFT:  2.00D  GRAD.:     4.121 HEAT: -62.97116
 CYCLE:   250 TIME:   0.031 TIME LEFT:  2.00D  GRAD.:     2.478 HEAT: -62.97548
 CYCLE:   251 TIME:   0.031 TIME LEFT:  2.00D  GRAD.:     2.248 HEAT: -62.97820
 CYCLE:   252 TIME:   0.039 TIME LEFT:  2.00D  GRAD.:     5.515 HEAT: -62.98785
 CYCLE:   253 TIME:   0.031 TIME LEFT:  2.00D  GRAD.:     2.969 HEAT: -62.99755
 CYCLE:   254 TIME:   0.031 TIME LEFT:  2.00D  GRAD.:     2.883 HEAT: -62.99693
 CYCLE:   255 TIME:   0.031 TIME LEFT:  2.00D  GRAD.:     3.167 HEAT: -63.00319
 CYCLE:   256 TIME:   0.039 TIME LEFT:  2.00D  GRAD.:     1.983 HEAT: -63.00770
 CYCLE:   257 TIME:   0.031 TIME LEFT:  2.00D  GRAD.:     1.723 HEAT: -63.01038
 CYCLE:   258 TIME:   0.031 TIME LEFT:  2.00D  GRAD.:     2.405 HEAT: -63.01530
 CYCLE:   259 TIME:   0.039 TIME LEFT:  2.00D  GRAD.:     3.379 HEAT: -63.01785
 CYCLE:   260 TIME:   0.031 TIME LEFT:  2.00D  GRAD.:     1.959 HEAT: -63.02233
 CYCLE:   261 TIME:   0.031 TIME LEFT:  2.00D  GRAD.:     1.769 HEAT: -63.02875
 CYCLE:   262 TIME:   0.039 TIME LEFT:  2.00D  GRAD.:     2.304 HEAT: -63.03198
 CYCLE:   263 TIME:   0.031 TIME LEFT:  2.00D  GRAD.:     6.154 HEAT: -63.03143
 CYCLE:   264 TIME:   0.031 TIME LEFT:  2.00D  GRAD.:     1.865 HEAT: -63.03832
 CYCLE:   265 TIME:   0.039 TIME LEFT:  2.00D  GRAD.:     1.264 HEAT: -63.04062
 CYCLE:   266 TIME:   0.031 TIME LEFT:  2.00D  GRAD.:     1.968 HEAT: -63.04440
 CYCLE:   267 TIME:   0.039 TIME LEFT:  2.00D  GRAD.:     2.942 HEAT: -63.04898
 CYCLE:   268 TIME:   0.031 TIME LEFT:  2.00D  GRAD.:     2.337 HEAT: -63.05431
 CYCLE:   269 TIME:   0.039 TIME LEFT:  2.00D  GRAD.:     1.900 HEAT: -63.05848
 CYCLE:   270 TIME:   0.031 TIME LEFT:  2.00D  GRAD.:     2.016 HEAT: -63.06236
 CYCLE:   271 TIME:   0.031 TIME LEFT:  2.00D  GRAD.:     1.780 HEAT: -63.06480
 CYCLE:   272 TIME:   0.039 TIME LEFT:  2.00D  GRAD.:     1.710 HEAT: -63.06719
 CYCLE:   273 TIME:   0.031 TIME LEFT:  2.00D  GRAD.:     2.584 HEAT: -63.07017
 CYCLE:   274 TIME:   0.039 TIME LEFT:  2.00D  GRAD.:     2.152 HEAT: -63.07441
 CYCLE:   275 TIME:   0.031 TIME LEFT:  2.00D  GRAD.:     2.128 HEAT: -63.07840
 CYCLE:   276 TIME:   0.039 TIME LEFT:  2.00D  GRAD.:     3.615 HEAT: -63.08185
 CYCLE:   277 TIME:   0.031 TIME LEFT:  2.00D  GRAD.:     2.257 HEAT: -63.08717
 CYCLE:   278 TIME:   0.031 TIME LEFT:  2.00D  GRAD.:     1.894 HEAT: -63.09190
 CYCLE:   279 TIME:   0.039 TIME LEFT:  2.00D  GRAD.:     2.766 HEAT: -63.09511
 CYCLE:   280 TIME:   0.031 TIME LEFT:  2.00D  GRAD.:     2.236 HEAT: -63.09937
 CYCLE:   281 TIME:   0.039 TIME LEFT:  2.00D  GRAD.:     2.913 HEAT: -63.10328
 CYCLE:   282 TIME:   0.031 TIME LEFT:  2.00D  GRAD.:     2.506 HEAT: -63.10562
 CYCLE:   283 TIME:   0.031 TIME LEFT:  2.00D  GRAD.:     1.515 HEAT: -63.10797
 CYCLE:   284 TIME:   0.039 TIME LEFT:  2.00D  GRAD.:     2.187 HEAT: -63.10897
 CYCLE:   285 TIME:   0.039 TIME LEFT:  2.00D  GRAD.:     4.773 HEAT: -63.10805
 CYCLE:   286 TIME:   0.039 TIME LEFT:  2.00D  GRAD.:     0.933 HEAT: -63.11402

 -------------------------------------------------------------------------------
 PM7 XYZ

 Lipophilicity_465 - geometry optimisation


     HERBERTS TEST WAS SATISFIED IN BFGS                      
     SCF FIELD WAS ACHIEVED                                   


                              PM7 CALCULATION
                                                       MOPAC v23.0.3 Linux
                                                       Fri Jul 25 19:52:34 2025




          FINAL HEAT OF FORMATION =        -63.11404 KCAL/MOL =    -264.06913 KJ/MOL


          COSMO AREA              =        388.15 SQUARE ANGSTROMS
          COSMO VOLUME            =        431.40 CUBIC ANGSTROMS

          GRADIENT NORM           =          0.93290          =       0.13465 PER ATOM
          IONIZATION POTENTIAL    =          8.301718 EV
          HOMO LUMO ENERGIES (EV) =         -8.302 -0.527
          NO. OF FILLED LEVELS    =         70
          MOLECULAR WEIGHT        =        367.4036         POINT GROUP:  C1  

          MOLECULAR DIMENSIONS (Angstroms)

            Atom       Atom       Distance
            H    48    H    36    16.23317
            H    43    H    29     8.25689
            H    39    H    35     5.38770


          SCF CALCULATIONS        =        287

          WALL-CLOCK TIME         =      9.945 SECONDS
          COMPUTATION TIME        =          3 MINUTES AND 18.434 SECONDS




   ATOM   CHEMICAL          X               Y               Z
  NUMBER   SYMBOL      (ANGSTROMS)     (ANGSTROMS)     (ANGSTROMS)

     1       C         -3.38548822  *   2.81681375  *  -1.63863339  *
     2       O         -4.29006647  *   1.76041388  *  -1.33065397  *
     3       C         -3.74091556  *   0.58402842  *  -0.94547657  *
     4       C         -2.37001888  *   0.34094639  *  -0.82761543  *
     5       C         -1.93896211  *  -0.90773883  *  -0.38300756  *
     6       N         -0.57715259  *  -1.25778302  *  -0.24218361  *
     7       C          0.50098519  *  -0.41023225  *  -0.03943284  *
     8       C          1.77306731  *  -0.99652290  *   0.17294356  *
     9       C          2.84332210  *  -0.12943069  *   0.38422264  *
    10       O          4.02689538  *  -0.77360249  *   0.58871933  *
    11       C          5.13236326  *   0.02340496  *   0.81801683  *
    12       C          5.55267551  *   0.22157153  *   2.12843640  *
    13       C          6.75291996  *   0.90048159  *   2.32861891  *
    14       C          7.46710136  *   1.34433392  *   1.20816026  *
    15       N          7.04873978  *   1.15120898  *  -0.05753259  *
    16       C          5.88948786  *   0.49853594  *  -0.27239839  *
    17       C          5.44147932  *   0.29968756  *  -1.67568844  *
    18       C          2.67393188  *   1.25756136  *   0.38143547  *
    19       C          1.37930345  *   1.73524952  *   0.15843671  *
    20       N          0.31649975  *   0.94162924  *  -0.04757012  *
    21       C         -2.86206829  *  -1.93120685  *  -0.08530639  *
    22       C         -4.22480016  *  -1.67022969  *  -0.21801518  *
    23       O         -5.22206358  *  -2.54347591  *   0.05973259  *
    24       C         -4.84035635  *  -3.86431329  *   0.42627377  *
    25       C         -4.68409664  *  -0.41334923  *  -0.65129374  *
    26       O         -6.01909468  *  -0.21812051  *  -0.88293249  *
    27       C         -6.65414455  *   0.46742655  *   0.19785380  *
    28       H         -2.75147117  *   2.55057786  *  -2.49059819  *
    29       H         -4.06815457  *   3.63251414  *  -1.90705689  *
    30       H         -2.78385210  *   3.08612831  *  -0.76395220  *
    31       H         -1.64809881  *   1.11885029  *  -1.07221435  *
    32       H         -0.38626009  *  -2.25316173  *  -0.13375844  *
    33       H          1.92223313  *  -2.06833409  *   0.17566181  *
    34       H          4.95895838  *  -0.15072296  *   2.96302868  *
    35       H          7.12840287  *   1.08317360  *   3.33149431  *
    36       H          8.41874392  *   1.88053302  *   1.30983770  *
    37       H          4.44274274  *   0.73311675  *  -1.84507510  *
    38       H          5.37647242  *  -0.77202011  *  -1.92467940  *
    39       H          6.13086902  *   0.76515110  *  -2.40030007  *
    40       H          3.49852014  *   1.93716406  *   0.54724446  *
    41       H          1.16304009  *   2.81279778  *   0.14094343  *
    42       H         -2.51624866  *  -2.89676281  *   0.25724044  *
    43       H         -5.81570880  *  -4.34756110  *   0.57586880  *
    44       H         -4.29426893  *  -4.35381020  *  -0.38604952  *
    45       H         -4.26666289  *  -3.86647359  *   1.35763225  *
    46       H         -6.22089284  *   1.46364359  *   0.32823735  *
    47       H         -6.58467341  *  -0.11793582  *   1.11856246  *
    48       H         -7.69336635  *   0.53578615  *  -0.14184758  *

                             CARTESIAN COORDINATES

   1    C       -3.385488218     2.816813749    -1.638633388
   2    O       -4.290066472     1.760413878    -1.330653975
   3    C       -3.740915563     0.584028419    -0.945476572
   4    C       -2.370018885     0.340946387    -0.827615430
   5    C       -1.938962110    -0.907738835    -0.383007555
   6    N       -0.577152595    -1.257783023    -0.242183614
   7    C        0.500985187    -0.410232255    -0.039432836
   8    C        1.773067314    -0.996522899     0.172943559
   9    C        2.843322096    -0.129430694     0.384222638
  10    O        4.026895376    -0.773602491     0.588719335
  11    C        5.132363264     0.023404956     0.818016830
  12    C        5.552675514     0.221571531     2.128436399
  13    C        6.752919957     0.900481591     2.328618906
  14    C        7.467101355     1.344333919     1.208160258
  15    N        7.048739783     1.151208981    -0.057532590
  16    C        5.889487859     0.498535936    -0.272398394
  17    C        5.441479319     0.299687564    -1.675688437
  18    C        2.673931882     1.257561360     0.381435469
  19    C        1.379303450     1.735249517     0.158436709
  20    N        0.316499751     0.941629241    -0.047570117
  21    C       -2.862068293    -1.931206855    -0.085306385
  22    C       -4.224800161    -1.670229694    -0.218015182
  23    O       -5.222063585    -2.543475913     0.059732586
  24    C       -4.840356349    -3.864313286     0.426273769
  25    C       -4.684096642    -0.413349226    -0.651293737
  26    O       -6.019094683    -0.218120509    -0.882932487
  27    C       -6.654144554     0.467426546     0.197853801
  28    H       -2.751471172     2.550577857    -2.490598186
  29    H       -4.068154568     3.632514145    -1.907056893
  30    H       -2.783852101     3.086128307    -0.763952204
  31    H       -1.648098812     1.118850293    -1.072214355
  32    H       -0.386260094    -2.253161734    -0.133758437
  33    H        1.922233131    -2.068334093     0.175661807
  34    H        4.958958379    -0.150722957     2.963028683
  35    H        7.128402875     1.083173600     3.331494309
  36    H        8.418743917     1.880533022     1.309837700
  37    H        4.442742744     0.733116749    -1.845075102
  38    H        5.376472424    -0.772020107    -1.924679397
  39    H        6.130869016     0.765151095    -2.400300069
  40    H        3.498520140     1.937164062     0.547244456
  41    H        1.163040088     2.812797775     0.140943433
  42    H       -2.516248658    -2.896762811     0.257240440
  43    H       -5.815708801    -4.347561100     0.575868796
  44    H       -4.294268934    -4.353810200    -0.386049524
  45    H       -4.266662890    -3.866473586     1.357632248
  46    H       -6.220892838     1.463643594     0.328237350
  47    H       -6.584673413    -0.117935819     1.118562458
  48    H       -7.693366346     0.535786149    -0.141847576


           Empirical Formula: C20 H21 N3 O4  =    48 atoms



      MOLECULAR POINT GROUP   :   C1  


                  EIGENVALUES  
 -37.55722 -36.13556 -35.63613 -31.52030 -30.92274 -30.67303 -29.73491 -29.46631
 -28.81675 -28.20898 -27.58304 -26.53022 -25.52687 -25.30609 -24.90172 -24.75169
 -24.04953 -23.71606 -22.85267 -22.38051 -21.90462 -21.28545 -20.76582 -20.44642
 -19.02040 -18.65476 -17.68785 -17.51755 -17.44664 -17.08032 -16.73834 -16.53322
 -16.42379 -16.15226 -15.98431 -15.65276 -15.61122 -15.30605 -15.24722 -15.09829
 -15.00527 -14.82118 -14.75053 -14.51288 -14.48516 -14.33943 -14.02979 -13.98133
 -13.61983 -13.55988 -13.43959 -13.25144 -13.04724 -12.77335 -12.66257 -12.56176
 -12.46939 -12.17233 -12.04121 -11.79651 -11.05494 -10.85977 -10.68229 -10.57581
 -10.05356  -9.96299  -9.75717  -9.41356  -8.94983  -8.30172  -0.52741  -0.40566
  -0.38904  -0.03539   0.46773   0.61297   1.18197   1.53030   1.73571   2.01659
   2.10679   2.17526   2.54819   2.94044   3.09708   3.17216   3.36658   3.64754
   3.80310   3.86723   3.90872   3.99368   4.12156   4.18484   4.22805   4.36698
   4.59733   4.64393   4.77717   4.82862   4.86909   4.93288   5.15227   5.17641
   5.18953   5.24564   5.26339   5.33146   5.37135   5.44004   5.45340   5.50187
   5.50316   5.56140   5.59248   5.62665   5.79772   5.89811   5.96030   5.97304
   6.05417   6.06269   6.09753   6.14614   6.28273   6.30173   6.58842   6.69083
   6.86489


              NET ATOMIC CHARGES AND DIPOLE CONTRIBUTIONS

  ATOM NO.   TYPE          CHARGE      No. of ELECS.   s-Pop       p-Pop       
    1          C          -0.211391        4.2114     1.08870     3.12269
    2          O          -0.274430        6.2744     1.86855     4.40588
    3          C           0.273389        3.7266     1.09025     2.63636
    4          C          -0.394195        4.3942     1.06873     3.32547
    5          C           0.329976        3.6700     1.05181     2.61822
    6          N          -0.486316        5.4863     1.52825     3.95806
    7          C           0.451904        3.5481     1.05084     2.49726
    8          C          -0.453697        4.4537     1.06598     3.38771
    9          C           0.353602        3.6464     1.08762     2.55878
   10          O          -0.279804        6.2798     1.85792     4.42188
   11          C           0.045944        3.9541     1.08328     2.87078
   12          C          -0.109220        4.1092     1.09121     3.01801
   13          C          -0.237834        4.2378     1.08597     3.15186
   14          C           0.053457        3.9465     1.09740     2.84914
   15          N          -0.380024        5.3800     1.74188     3.63814
   16          C           0.194697        3.8053     1.07921     2.72609
   17          C          -0.447017        4.4470     1.05006     3.39695
   18          C          -0.451915        4.4519     1.07250     3.37942
   19          C           0.175802        3.8242     1.09616     2.72803
   20          N          -0.499003        5.4990     1.74940     3.74961
   21          C          -0.452403        4.4524     1.06147     3.39093
   22          C           0.280530        3.7195     1.08788     2.63159
   23          O          -0.265015        6.2650     1.86885     4.39616
   24          C          -0.215996        4.2160     1.08791     3.12809
   25          C          -0.069045        4.0690     1.05478     3.01426
   26          O          -0.267929        6.2679     1.87837     4.38956
   27          C          -0.218589        4.2186     1.08637     3.13221
   28          H           0.139821        0.8602     0.86018
   29          H           0.146927        0.8531     0.85307
   30          H           0.141932        0.8581     0.85807
   31          H           0.214019        0.7860     0.78598
   32          H           0.317323        0.6827     0.68268
   33          H           0.190160        0.8098     0.80984
   34          H           0.177485        0.8225     0.82252
   35          H           0.171173        0.8288     0.82883
   36          H           0.173639        0.8264     0.82636
   37          H           0.171696        0.8283     0.82830
   38          H           0.175868        0.8241     0.82413
   39          H           0.181894        0.8181     0.81811
   40          H           0.183928        0.8161     0.81607
   41          H           0.169944        0.8301     0.83006
   42          H           0.171051        0.8289     0.82895
   43          H           0.153029        0.8470     0.84697
   44          H           0.136810        0.8632     0.86319
   45          H           0.133736        0.8663     0.86626
   46          H           0.132526        0.8675     0.86747
   47          H           0.128113        0.8719     0.87189
   48          H           0.143448        0.8566     0.85655
 DIPOLE           X         Y         Z       TOTAL
 POINT-CHG.     2.398     0.540     2.280     3.352
 HYBRID        -0.105    -1.393     0.664     1.547
 SUM            2.293    -0.853     2.944     3.827


          ATOMIC ORBITAL ELECTRON POPULATIONS

     Atom    s        px        py        pz   
    1  C   1.08870   1.05125   0.93749   1.13395
    2  O   1.86855   1.34553   1.25377   1.80659
    3  C   1.09025   0.94357   0.83366   0.85913
    4  C   1.06873   1.03589   1.08429   1.20529
    5  C   1.05181   0.77693   0.95479   0.88649
    6  N   1.52825   1.11392   1.16554   1.67860
    7  C   1.05084   0.83490   0.84102   0.82134
    8  C   1.06598   0.98901   1.11331   1.28540
    9  C   1.08762   0.81153   0.92928   0.81797
   10  O   1.85792   1.22355   1.35457   1.84377
   11  C   1.08328   0.88431   1.00498   0.98149
   12  C   1.09121   1.00920   0.96669   1.04212
   13  C   1.08597   1.01778   1.04786   1.08622
   14  C   1.09740   1.02514   0.94709   0.87690
   15  N   1.74188   1.18478   1.17448   1.27889
   16  C   1.07921   0.87591   0.88188   0.96830
   17  C   1.05006   1.17638   1.18962   1.03095
   18  C   1.07250   1.08737   1.03639   1.25566
   19  C   1.09616   0.87577   1.02584   0.82642
   20  N   1.74940   1.36172   1.09377   1.29412
   21  C   1.06147   1.00136   1.11129   1.27828
   22  C   1.08788   0.88372   0.88543   0.86243
   23  O   1.86885   1.32793   1.25209   1.81615
   24  C   1.08791   1.15145   0.85426   1.12238
   25  C   1.05478   0.86193   0.96935   1.18298
   26  O   1.87837   1.20969   1.78610   1.39377
   27  C   1.08637   1.06654   1.07545   0.99023
   28  H   0.86018
   29  H   0.85307
   30  H   0.85807
   31  H   0.78598
   32  H   0.68268
   33  H   0.80984
   34  H   0.82252
   35  H   0.82883
   36  H   0.82636
   37  H   0.82830
   38  H   0.82413
   39  H   0.81811
   40  H   0.81607
   41  H   0.83006
   42  H   0.82895
   43  H   0.84697
   44  H   0.86319
   45  H   0.86626
   46  H   0.86747
   47  H   0.87189
   48  H   0.85655

 **********************
 *                    *
 * JOB ENDED NORMALLY *
 *                    *
 **********************



 TOTAL JOB TIME:             9.95 SECONDS

 == MOPAC DONE ==
