 *******************************************************************************
 **                                                                           **
 **                              MOPAC v23.0.3                                **
 **                                                                           **
 *******************************************************************************
 **          Digital Object Identifier (DOI): 10.5281/zenodo.6511958          **
 **    Visit the DOI location for information on how to cite this program.    **
 *******************************************************************************

                              PM7 CALCULATION RESULTS

 *******************************************************************************
 *  CALCULATION DONE:                                Fri Jul 25 18:12:10 2025  *
 *  PM7        - The PM7 Hamiltonian to be used
 *  XYZ        - CARTESIAN COORDINATE SYSTEM TO BE USED
 *  T=         - A TIME OF 172800.0 SECONDS REQUESTED
 *  DUMP=N     - RESTART FILE WRITTEN EVERY 7200.0 SECONDS REQUESTED
 *******************************************************************************
PM7 XYZ

 Lipophilicity_1788 - geometry optimisation
   ATOM   CHEMICAL          X               Y               Z
  NUMBER   SYMBOL      (ANGSTROMS)     (ANGSTROMS)     (ANGSTROMS)

     1       C          6.30409500  *   0.26638100  *  -0.62333200  *
     2       N          4.86019600  *   0.30586700  *  -0.33405900  *
     3       C          4.04887000  *   1.22716900  *  -0.95368400  *
     4       O          4.51889100  *   2.05244100  *  -1.78388700  *
     5       C          2.68253800  *   1.26589300  *  -0.67636400  *
     6       C          2.15590100  *   0.36087000  *   0.24189700  *
     7       C          0.68675500  *   0.33973800  *   0.54784300  *
     8       C         -0.05956600  *  -0.54000500  *  -0.45868500  *
     9       C         -1.53196400  *  -0.56796400  *  -0.14669600  *
    10       C         -2.05168400  *  -1.54190200  *   0.72036500  *
    11       C         -3.41202700  *  -1.55316000  *   1.03935400  *
    12       C         -4.27062200  *  -0.58251300  *   0.50408400  *
    13       C         -5.63830200  *  -0.58345500  *   0.81989100  *
    14       C         -6.48275100  *   0.39317000  *   0.28414500  *
    15       C         -5.97060300  *   1.37563000  *  -0.56733800  *
    16       C         -4.61055200  *   1.38795500  *  -0.89003200  *
    17       C         -3.75172000  *   0.41203700  *  -0.36033400  *
    18       C         -2.38452400  *   0.41454500  *  -0.67588500  *
    19       N          2.97572800  *  -0.54921000  *   0.82152300  *
    20       C          4.30748000  *  -0.59201600  *   0.55204900  *
    21       N          5.09951500  *  -1.59106200  *   1.20833000  *
    22       H          6.62776400  *   1.07718900  *  -1.30795000  *
    23       H          6.88227400  *   0.38692000  *   0.31705500  *
    24       H          6.56478600  *  -0.70056100  *  -1.10338100  *
    25       H          2.04216800  *   1.98857600  *  -1.16882300  *
    26       H          0.28122500  *   1.37540800  *   0.51778700  *
    27       H          0.53189600  *  -0.05475300  *   1.57600100  *
    28       H          0.35194600  *  -1.57345800  *  -0.43116200  *
    29       H          0.09854400  *  -0.14990800  *  -1.48870100  *
    30       H         -1.40121400  *  -2.29310300  *   1.15087800  *
    31       H         -3.79132500  *  -2.31762700  *   1.70729200  *
    32       H         -6.05232400  *  -1.33600600  *   1.48014200  *
    33       H         -7.53673700  *   0.38924800  *   0.53034600  *
    34       H         -6.62949400  *   2.13000500  *  -0.97824800  *
    35       H         -4.23111300  *   2.15792600  *  -1.55134000  *
    36       H         -1.98023700  *   1.17913400  *  -1.32974700  *
    37       H          4.64693300  *  -2.24371100  *   1.88636100  *
    38       H          6.11925800  *  -1.71568900  *   1.03046200  *



          CARTESIAN COORDINATES 

    NO.       ATOM           X           Y           Z

     1         C          6.3041      0.2664     -0.6233
     2         N          4.8602      0.3059     -0.3341
     3         C          4.0489      1.2272     -0.9537
     4         O          4.5189      2.0524     -1.7839
     5         C          2.6825      1.2659     -0.6764
     6         C          2.1559      0.3609      0.2419
     7         C          0.6868      0.3397      0.5478
     8         C         -0.0596     -0.5400     -0.4587
     9         C         -1.5320     -0.5680     -0.1467
    10         C         -2.0517     -1.5419      0.7204
    11         C         -3.4120     -1.5532      1.0394
    12         C         -4.2706     -0.5825      0.5041
    13         C         -5.6383     -0.5835      0.8199
    14         C         -6.4828      0.3932      0.2841
    15         C         -5.9706      1.3756     -0.5673
    16         C         -4.6106      1.3880     -0.8900
    17         C         -3.7517      0.4120     -0.3603
    18         C         -2.3845      0.4145     -0.6759
    19         N          2.9757     -0.5492      0.8215
    20         C          4.3075     -0.5920      0.5520
    21         N          5.0995     -1.5911      1.2083
    22         H          6.6278      1.0772     -1.3079
    23         H          6.8823      0.3869      0.3171
    24         H          6.5648     -0.7006     -1.1034
    25         H          2.0422      1.9886     -1.1688
    26         H          0.2812      1.3754      0.5178
    27         H          0.5319     -0.0548      1.5760
    28         H          0.3519     -1.5735     -0.4312
    29         H          0.0985     -0.1499     -1.4887
    30         H         -1.4012     -2.2931      1.1509
    31         H         -3.7913     -2.3176      1.7073
    32         H         -6.0523     -1.3360      1.4801
    33         H         -7.5367      0.3892      0.5303
    34         H         -6.6295      2.1300     -0.9782
    35         H         -4.2311      2.1579     -1.5513
    36         H         -1.9802      1.1791     -1.3297
    37         H          4.6469     -2.2437      1.8864
    38         H          6.1193     -1.7157      1.0305

 General Reference for PM7:
 "Optimization of Parameters for Semiempirical Methods VI: More Modifications to the 
 NDDO Approximations and Re-optimization of Parameters", J. J. P. Stewart, J. Mol. Mod., 1:32, 19 (2013)
 https://link.springer.com/article/10.1007/s00894-012-1667-x

           Empirical Formula: C17 H17 N3 O  =    38 atoms



      MOLECULAR POINT GROUP   :   C1  


      RHF CALCULATION, NO. OF DOUBLY OCCUPIED LEVELS = 53


          Geometry optimization using L-BFGS
 CYCLE:     1 TIME:   0.059 TIME LEFT:  2.00D  GRAD.:   230.207 HEAT:  26.58985
 CYCLE:     2 TIME:   0.027 TIME LEFT:  2.00D  GRAD.:   224.465 HEAT:  26.06645
 CYCLE:     3 TIME:   0.027 TIME LEFT:  2.00D  GRAD.:    59.631 HEAT:  14.83023
 CYCLE:     4 TIME:   0.023 TIME LEFT:  2.00D  GRAD.:   224.828 HEAT:  26.06337
 CYCLE:     5 TIME:   0.027 TIME LEFT:  2.00D  GRAD.:    59.829 HEAT:  14.83194
 CYCLE:     6 TIME:   0.023 TIME LEFT:  2.00D  GRAD.:    42.312 HEAT:  13.82407
 CYCLE:     7 TIME:   0.023 TIME LEFT:  2.00D  GRAD.:    30.335 HEAT:  12.18037
 CYCLE:     8 TIME:   0.023 TIME LEFT:  2.00D  GRAD.:    49.637 HEAT:  11.75707
 CYCLE:     9 TIME:   0.023 TIME LEFT:  2.00D  GRAD.:    22.020 HEAT:  11.29435
 CYCLE:    10 TIME:   0.023 TIME LEFT:  2.00D  GRAD.:    15.456 HEAT:  11.04214
 CYCLE:    11 TIME:   0.020 TIME LEFT:  2.00D  GRAD.:    14.720 HEAT:  10.89465
 CYCLE:    12 TIME:   0.023 TIME LEFT:  2.00D  GRAD.:    13.356 HEAT:  10.73048
 CYCLE:    13 TIME:   0.023 TIME LEFT:  2.00D  GRAD.:    21.443 HEAT:  10.75998
 CYCLE:    14 TIME:   0.023 TIME LEFT:  2.00D  GRAD.:     4.980 HEAT:  10.67439
 CYCLE:    15 TIME:   0.020 TIME LEFT:  2.00D  GRAD.:     4.172 HEAT:  10.66260
 CYCLE:    16 TIME:   0.023 TIME LEFT:  2.00D  GRAD.:     6.976 HEAT:  10.60826
 CYCLE:    17 TIME:   0.023 TIME LEFT:  2.00D  GRAD.:     9.175 HEAT:  10.56948
 CYCLE:    18 TIME:   0.020 TIME LEFT:  2.00D  GRAD.:     7.055 HEAT:  10.51721
 CYCLE:    19 TIME:   0.023 TIME LEFT:  2.00D  GRAD.:     6.755 HEAT:  10.47446
 CYCLE:    20 TIME:   0.023 TIME LEFT:  2.00D  GRAD.:     6.413 HEAT:  10.44959
 CYCLE:    21 TIME:   0.020 TIME LEFT:  2.00D  GRAD.:     3.588 HEAT:  10.43550
 CYCLE:    22 TIME:   0.023 TIME LEFT:  2.00D  GRAD.:     2.607 HEAT:  10.42825
 CYCLE:    23 TIME:   0.023 TIME LEFT:  2.00D  GRAD.:     3.501 HEAT:  10.41899
 CYCLE:    24 TIME:   0.023 TIME LEFT:  2.00D  GRAD.:     4.385 HEAT:  10.41068
 CYCLE:    25 TIME:   0.023 TIME LEFT:  2.00D  GRAD.:     2.823 HEAT:  10.40413
 CYCLE:    26 TIME:   0.020 TIME LEFT:  2.00D  GRAD.:     1.921 HEAT:  10.39948
 CYCLE:    27 TIME:   0.020 TIME LEFT:  2.00D  GRAD.:     2.165 HEAT:  10.39632
 CYCLE:    28 TIME:   0.020 TIME LEFT:  2.00D  GRAD.:     1.701 HEAT:  10.39347
 CYCLE:    29 TIME:   0.023 TIME LEFT:  2.00D  GRAD.:     1.488 HEAT:  10.39088
 CYCLE:    30 TIME:   0.020 TIME LEFT:  2.00D  GRAD.:     2.474 HEAT:  10.38846
 CYCLE:    31 TIME:   0.020 TIME LEFT:  2.00D  GRAD.:     1.570 HEAT:  10.38611
 CYCLE:    32 TIME:   0.020 TIME LEFT:  2.00D  GRAD.:     1.230 HEAT:  10.38462
 CYCLE:    33 TIME:   0.023 TIME LEFT:  2.00D  GRAD.:     1.322 HEAT:  10.38305
 CYCLE:    34 TIME:   0.020 TIME LEFT:  2.00D  GRAD.:     1.755 HEAT:  10.38174
 CYCLE:    35 TIME:   0.020 TIME LEFT:  2.00D  GRAD.:     1.423 HEAT:  10.38036
 CYCLE:    36 TIME:   0.020 TIME LEFT:  2.00D  GRAD.:     1.593 HEAT:  10.37702
 CYCLE:    37 TIME:   0.023 TIME LEFT:  2.00D  GRAD.:     2.655 HEAT:  10.37457
 CYCLE:    38 TIME:   0.020 TIME LEFT:  2.00D  GRAD.:     2.257 HEAT:  10.37129
 CYCLE:    39 TIME:   0.023 TIME LEFT:  2.00D  GRAD.:     2.020 HEAT:  10.36797
 CYCLE:    40 TIME:   0.023 TIME LEFT:  2.00D  GRAD.:     3.053 HEAT:  10.36498
 CYCLE:    41 TIME:   0.020 TIME LEFT:  2.00D  GRAD.:     2.937 HEAT:  10.36190
 CYCLE:    42 TIME:   0.023 TIME LEFT:  2.00D  GRAD.:     3.367 HEAT:  10.35777
 CYCLE:    43 TIME:   0.020 TIME LEFT:  2.00D  GRAD.:     4.360 HEAT:  10.35353
 CYCLE:    44 TIME:   0.020 TIME LEFT:  2.00D  GRAD.:     3.446 HEAT:  10.35064
 CYCLE:    45 TIME:   0.023 TIME LEFT:  2.00D  GRAD.:     2.400 HEAT:  10.34931
 CYCLE:    46 TIME:   0.020 TIME LEFT:  2.00D  GRAD.:     1.289 HEAT:  10.34736
 CYCLE:    47 TIME:   0.023 TIME LEFT:  2.00D  GRAD.:     1.481 HEAT:  10.34525
 CYCLE:    48 TIME:   0.023 TIME LEFT:  2.00D  GRAD.:     2.775 HEAT:  10.34134
 CYCLE:    49 TIME:   0.020 TIME LEFT:  2.00D  GRAD.:     3.934 HEAT:  10.34190
 CYCLE:    50 TIME:   0.020 TIME LEFT:  2.00D  GRAD.:     1.949 HEAT:  10.33474
 CYCLE:    51 TIME:   0.023 TIME LEFT:  2.00D  GRAD.:     1.772 HEAT:  10.33308
 CYCLE:    52 TIME:   0.020 TIME LEFT:  2.00D  GRAD.:     2.406 HEAT:  10.32906
 CYCLE:    53 TIME:   0.020 TIME LEFT:  2.00D  GRAD.:     2.066 HEAT:  10.32339
 CYCLE:    54 TIME:   0.023 TIME LEFT:  2.00D  GRAD.:     2.626 HEAT:  10.31968
 CYCLE:    55 TIME:   0.020 TIME LEFT:  2.00D  GRAD.:     2.107 HEAT:  10.31710
 CYCLE:    56 TIME:   0.020 TIME LEFT:  2.00D  GRAD.:     2.069 HEAT:  10.31409
 CYCLE:    57 TIME:   0.023 TIME LEFT:  2.00D  GRAD.:     1.800 HEAT:  10.31181
 CYCLE:    58 TIME:   0.020 TIME LEFT:  2.00D  GRAD.:     1.879 HEAT:  10.30964
 CYCLE:    59 TIME:   0.023 TIME LEFT:  2.00D  GRAD.:     1.702 HEAT:  10.30751
 CYCLE:    60 TIME:   0.020 TIME LEFT:  2.00D  GRAD.:     1.409 HEAT:  10.30584
 CYCLE:    61 TIME:   0.020 TIME LEFT:  2.00D  GRAD.:     1.333 HEAT:  10.30392
 CYCLE:    62 TIME:   0.023 TIME LEFT:  2.00D  GRAD.:     3.182 HEAT:  10.30253
 CYCLE:    63 TIME:   0.020 TIME LEFT:  2.00D  GRAD.:     1.066 HEAT:  10.30053
 CYCLE:    64 TIME:   0.020 TIME LEFT:  2.00D  GRAD.:     0.846 HEAT:  10.29991

 -------------------------------------------------------------------------------
 PM7 XYZ

 Lipophilicity_1788 - geometry optimisation


     HERBERTS TEST WAS SATISFIED IN BFGS                      
     SCF FIELD WAS ACHIEVED                                   


                              PM7 CALCULATION
                                                       MOPAC v23.0.3 Linux
                                                       Fri Jul 25 18:12:11 2025




          FINAL HEAT OF FORMATION =         10.29991 KCAL/MOL =      43.09483 KJ/MOL


          COSMO AREA              =        315.07 SQUARE ANGSTROMS
          COSMO VOLUME            =        341.94 CUBIC ANGSTROMS

          GRADIENT NORM           =          0.84627          =       0.13728 PER ATOM
          IONIZATION POTENTIAL    =          8.896163 EV
          HOMO LUMO ENERGIES (EV) =         -8.896 -0.548
          NO. OF FILLED LEVELS    =         53
          MOLECULAR WEIGHT        =        279.3408         POINT GROUP:  C1  

          MOLECULAR DIMENSIONS (Angstroms)

            Atom       Atom       Distance
            H    33    H    23    14.39637
            H    37    H    35     5.59562
            H    28    H    26     2.72109


          SCF CALCULATIONS        =         65

          WALL-CLOCK TIME         =      1.469 SECONDS
          COMPUTATION TIME        =     29.347 SECONDS




   ATOM   CHEMICAL          X               Y               Z
  NUMBER   SYMBOL      (ANGSTROMS)     (ANGSTROMS)     (ANGSTROMS)

     1       C          6.29118953  *   0.24951082  *  -0.60859356  *
     2       N          4.85045590  *   0.27697529  *  -0.34724917  *
     3       C          4.04008498  *   1.27746930  *  -1.01728357  *
     4       O          4.62059772  *   2.00374204  *  -1.79028154  *
     5       C          2.64948821  *   1.26311456  *  -0.67377038  *
     6       C          2.15034787  *   0.35294603  *   0.22404491  *
     7       C          0.69706963  *   0.28912583  *   0.58777347  *
     8       C         -0.05205320  *  -0.54015654  *  -0.47053409  *
     9       C         -1.51500379  *  -0.54043119  *  -0.15316243  *
    10       C         -2.02941627  *  -1.53072674  *   0.72631939  *
    11       C         -3.36052984  *  -1.54661494  *   1.04827717  *
    12       C         -4.24481082  *  -0.57177927  *   0.50846149  *
    13       C         -5.63081792  *  -0.57034685  *   0.82542964  *
    14       C         -6.46274642  *   0.38004248  *   0.29249771  *
    15       C         -5.94893291  *   1.37481421  *  -0.57743979  *
    16       C         -4.61629243  *   1.39395408  *  -0.89793696  *
    17       C         -3.73369529  *   0.41527635  *  -0.36221247  *
    18       C         -2.34987909  *   0.41081074  *  -0.68508656  *
    19       N          2.94435879  *  -0.58056167  *   0.83519808  *
    20       C          4.26165451  *  -0.58720906  *   0.55872752  *
    21       N          5.03721819  *  -1.48384032  *   1.26999421  *
    22       H          6.56134087  *   1.06063145  *  -1.32377321  *
    23       H          6.86952439  *   0.42851005  *   0.31433832  *
    24       H          6.59639419  *  -0.70232920  *  -1.07381988  *
    25       H          2.02514621  *   2.00519159  *  -1.16048868  *
    26       H          0.26768974  *   1.31021322  *   0.65546134  *
    27       H          0.56010582  *  -0.16551152  *   1.59382472  *
    28       H          0.35182696  *  -1.57432015  *  -0.49364145  *
    29       H          0.13993414  *  -0.12881881  *  -1.48336690  *
    30       H         -1.34620358  *  -2.27195401  *   1.13868714  *
    31       H         -3.76455660  *  -2.30181590  *   1.72038210  *
    32       H         -6.01445639  *  -1.33740092  *   1.49567106  *
    33       H         -7.52520769  *   0.38652939  *   0.52753185  *
    34       H         -6.63079535  *   2.12054573  *  -0.98242504  *
    35       H         -4.21188537  *   2.15393045  *  -1.56404863  *
    36       H         -1.96899023  *   1.17566968  *  -1.35968699  *
    37       H          4.55384918  *  -2.13718875  *   1.86723231  *
    38       H          5.93800123  *  -1.75799608  *   0.94110839  *

                             CARTESIAN COORDINATES

   1    C        6.291189526     0.249510819    -0.608593563
   2    N        4.850455897     0.276975292    -0.347249170
   3    C        4.040084981     1.277469305    -1.017283570
   4    O        4.620597723     2.003742045    -1.790281542
   5    C        2.649488213     1.263114562    -0.673770377
   6    C        2.150347870     0.352946033     0.224044912
   7    C        0.697069633     0.289125833     0.587773465
   8    C       -0.052053201    -0.540156543    -0.470534094
   9    C       -1.515003792    -0.540431189    -0.153162431
  10    C       -2.029416273    -1.530726739     0.726319393
  11    C       -3.360529844    -1.546614937     1.048277167
  12    C       -4.244810820    -0.571779274     0.508461491
  13    C       -5.630817917    -0.570346849     0.825429639
  14    C       -6.462746422     0.380042476     0.292497713
  15    C       -5.948932910     1.374814207    -0.577439793
  16    C       -4.616292432     1.393954084    -0.897936960
  17    C       -3.733695291     0.415276349    -0.362212467
  18    C       -2.349879091     0.410810744    -0.685086560
  19    N        2.944358786    -0.580561672     0.835198076
  20    C        4.261654506    -0.587209059     0.558727520
  21    N        5.037218185    -1.483840320     1.269994206
  22    H        6.561340869     1.060631451    -1.323773210
  23    H        6.869524387     0.428510051     0.314338323
  24    H        6.596394189    -0.702329202    -1.073819882
  25    H        2.025146211     2.005191591    -1.160488682
  26    H        0.267689741     1.310213218     0.655461345
  27    H        0.560105821    -0.165511517     1.593824717
  28    H        0.351826961    -1.574320154    -0.493641451
  29    H        0.139934138    -0.128818808    -1.483366903
  30    H       -1.346203581    -2.271954007     1.138687144
  31    H       -3.764556600    -2.301815900     1.720382100
  32    H       -6.014456395    -1.337400922     1.495671060
  33    H       -7.525207691     0.386529390     0.527531852
  34    H       -6.630795352     2.120545726    -0.982425042
  35    H       -4.211885375     2.153930450    -1.564048631
  36    H       -1.968990233     1.175669682    -1.359686988
  37    H        4.553849181    -2.137188746     1.867232313
  38    H        5.938001235    -1.757996082     0.941108393


           Empirical Formula: C17 H17 N3 O  =    38 atoms



      MOLECULAR POINT GROUP   :   C1  


                  EIGENVALUES  
 -38.90852 -36.52489 -35.14645 -31.11339 -30.42525 -29.75203 -28.42834 -26.98429
 -26.64327 -25.79155 -25.04734 -24.34856 -22.82201 -22.75486 -21.48042 -21.05176
 -20.94157 -20.09290 -19.20538 -18.03286 -17.62933 -17.56721 -17.05947 -16.92252
 -16.71290 -16.46815 -15.31752 -15.22481 -14.99788 -14.84332 -14.65224 -14.43755
 -14.26022 -14.13600 -13.91623 -13.83665 -13.77651 -13.62411 -13.53563 -13.02140
 -12.52476 -12.01408 -11.95392 -11.73458 -11.53344 -11.41132 -11.03181 -10.74634
 -10.71701 -10.41109  -9.36904  -9.21536  -8.89616  -0.54788  -0.31459  -0.05478
   0.63611   0.81128   0.87630   1.73306   1.80969   2.24369   2.80696   2.88559
   3.31577   3.65660   3.84555   3.95100   4.07958   4.17950   4.36479   4.50870
   4.58676   4.61898   4.81193   4.86662   4.89760   4.92560   5.00941   5.09464
   5.14262   5.16780   5.22607   5.42444   5.50637   5.56286   5.71077   5.78300
   5.81808   5.90133   5.93846   5.97909   6.11140   6.15085   6.18448   6.20648
   6.22173   6.29006   6.30366   6.37798   6.47967


              NET ATOMIC CHARGES AND DIPOLE CONTRIBUTIONS

  ATOM NO.   TYPE          CHARGE      No. of ELECS.   s-Pop       p-Pop       
    1          C          -0.246849        4.2468     1.05883     3.18802
    2          N          -0.491269        5.4913     1.58714     3.90413
    3          C           0.624804        3.3752     1.08026     2.29493
    4          O          -0.505568        6.5056     1.87885     4.62672
    5          C          -0.514333        4.5143     1.07289     3.44145
    6          C           0.347221        3.6528     1.07899     2.57379
    7          C          -0.277144        4.2771     1.06037     3.21677
    8          C          -0.266868        4.2669     1.05647     3.21040
    9          C           0.020253        3.9797     1.07032     2.90943
   10          C          -0.168705        4.1687     1.08506     3.08365
   11          C          -0.146922        4.1469     1.08559     3.06133
   12          C          -0.023555        4.0236     1.06232     2.96124
   13          C          -0.149426        4.1494     1.08526     3.06417
   14          C          -0.152087        4.1521     1.08264     3.06945
   15          C          -0.140975        4.1410     1.08353     3.05745
   16          C          -0.161628        4.1616     1.08509     3.07654
   17          C           0.004252        3.9957     1.06324     2.93251
   18          C          -0.191362        4.1914     1.08439     3.10697
   19          N          -0.592007        5.5920     1.76018     3.83183
   20          C           0.570248        3.4298     1.04168     2.38808
   21          N          -0.611431        5.6114     1.53677     4.07466
   22          H           0.199983        0.8000     0.80002
   23          H           0.151795        0.8482     0.84820
   24          H           0.143327        0.8567     0.85667
   25          H           0.203290        0.7967     0.79671
   26          H           0.167014        0.8330     0.83299
   27          H           0.175836        0.8242     0.82416
   28          H           0.159133        0.8409     0.84087
   29          H           0.158703        0.8413     0.84130
   30          H           0.158353        0.8416     0.84165
   31          H           0.151988        0.8480     0.84801
   32          H           0.152246        0.8478     0.84775
   33          H           0.151144        0.8489     0.84886
   34          H           0.151041        0.8490     0.84896
   35          H           0.154132        0.8459     0.84587
   36          H           0.160088        0.8399     0.83991
   37          H           0.327741        0.6723     0.67226
   38          H           0.307540        0.6925     0.69246
 DIPOLE           X         Y         Z       TOTAL
 POINT-CHG.     1.250    -3.327     2.085     4.120
 HYBRID         0.961    -0.262    -0.412     1.078
 SUM            2.212    -3.588     1.673     4.535


          ATOMIC ORBITAL ELECTRON POPULATIONS

     Atom    s        px        py        pz   
    1  C   1.05883   0.82756   1.18891   1.17156
    2  N   1.58714   1.15053   1.35168   1.40192
    3  C   1.08026   0.83957   0.71705   0.73830
    4  O   1.87885   1.70493   1.48945   1.43234
    5  C   1.07289   1.03585   1.19792   1.20767
    6  C   1.07899   0.93177   0.81639   0.82563
    7  C   1.06037   0.96780   1.14078   1.10819
    8  C   1.05647   0.99105   1.13553   1.08382
    9  C   1.07032   0.96809   0.97125   0.97009
   10  C   1.08506   1.02358   1.04309   1.01698
   11  C   1.08559   1.00119   1.03208   1.02806
   12  C   1.06232   0.97755   0.98841   0.99527
   13  C   1.08526   0.99385   1.03952   1.03079
   14  C   1.08264   1.07421   0.99294   1.00230
   15  C   1.08353   1.02201   1.03162   1.00381
   16  C   1.08509   1.00203   1.03838   1.03614
   17  C   1.06324   0.97498   0.97834   0.97919
   18  C   1.08439   0.99525   1.05438   1.05734
   19  N   1.76018   1.06413   1.36359   1.40411
   20  C   1.04168   0.82079   0.80132   0.76597
   21  N   1.53677   1.22190   1.40734   1.44543
   22  H   0.80002
   23  H   0.84820
   24  H   0.85667
   25  H   0.79671
   26  H   0.83299
   27  H   0.82416
   28  H   0.84087
   29  H   0.84130
   30  H   0.84165
   31  H   0.84801
   32  H   0.84775
   33  H   0.84886
   34  H   0.84896
   35  H   0.84587
   36  H   0.83991
   37  H   0.67226
   38  H   0.69246

 **********************
 *                    *
 * JOB ENDED NORMALLY *
 *                    *
 **********************



 TOTAL JOB TIME:             1.47 SECONDS

 == MOPAC DONE ==
