 *******************************************************************************
 **                                                                           **
 **                              MOPAC v23.0.3                                **
 **                                                                           **
 *******************************************************************************
 **          Digital Object Identifier (DOI): 10.5281/zenodo.6511958          **
 **    Visit the DOI location for information on how to cite this program.    **
 *******************************************************************************

                              PM7 CALCULATION RESULTS

 *******************************************************************************
 *  CALCULATION DONE:                                Fri Jul 25 16:20:38 2025  *
 *  PM7        - The PM7 Hamiltonian to be used
 *  XYZ        - CARTESIAN COORDINATE SYSTEM TO BE USED
 *  T=         - A TIME OF 172800.0 SECONDS REQUESTED
 *  DUMP=N     - RESTART FILE WRITTEN EVERY 7200.0 SECONDS REQUESTED
 *******************************************************************************
PM7 XYZ

 Lipophilicity_1147 - geometry optimisation
   ATOM   CHEMICAL          X               Y               Z
  NUMBER   SYMBOL      (ANGSTROMS)     (ANGSTROMS)     (ANGSTROMS)

     1       C         -2.56839000  *  -1.26586900  *  -1.83133800  *
     2       C         -2.48590900  *   0.19817700  *  -1.37375300  *
     3       C         -3.64757300  *   0.50863300  *  -0.41285800  *
     4       C         -1.05753100  *   0.53542900  *  -0.83370200  *
     5       N         -0.67935700  *  -0.28042000  *   0.33548700  *
     6       C         -1.32561800  *  -0.11729200  *   1.64379400  *
     7       C          0.40729900  *  -1.21947300  *   0.22796600  *
     8       C          0.16649800  *  -2.56914000  *   0.53480800  *
     9       C          1.19134200  *  -3.51112000  *   0.45658600  *
    10       C          2.47186300  *  -3.11813200  *   0.07517100  *
    11       C          2.73454300  *  -1.78043700  *  -0.22359300  *
    12       C          1.71949300  *  -0.80728300  *  -0.13967200  *
    13       C          2.07305600  *   0.63155700  *  -0.49122000  *
    14       C          1.52246700  *   1.67758000  *   0.51796700  *
    15       C          2.64919100  *   2.59268800  *   1.04164000  *
    16       O          3.61605100  *   1.84955000  *   1.73569400  *
    17       N          0.46540800  *   2.49842800  *  -0.09758100  *
    18       C         -0.79990400  *   2.01132000  *  -0.58582500  *
    19       O         -1.67432500  *   2.85754000  *  -0.91594400  *
    20       H         -2.45468100  *  -1.95523600  *  -0.96829400  *
    21       H         -3.55004700  *  -1.46141800  *  -2.31357900  *
    22       H         -1.77180500  *  -1.48641300  *  -2.57348900  *
    23       H         -2.64568800  *   0.82113600  *  -2.28276200  *
    24       H         -4.60562900  *   0.49157100  *  -0.97510500  *
    25       H         -3.54766200  *   1.51313200  *   0.04367900  *
    26       H         -3.72461700  *  -0.25139000  *   0.39033100  *
    27       H         -0.39193300  *   0.27285100  *  -1.68250100  *
    28       H         -1.89664700  *   0.83173500  *   1.69533500  *
    29       H         -2.00485000  *  -0.97240300  *   1.83920200  *
    30       H         -0.56147200  *  -0.09058600  *   2.44885800  *
    31       H         -0.82447000  *  -2.89375100  *   0.82496000  *
    32       H          0.99100800  *  -4.54906900  *   0.68910800  *
    33       H          3.26471400  *  -3.85216300  *   0.01023700  *
    34       H          3.73939500  *  -1.50533100  *  -0.51949500  *
    35       H          3.17949400  *   0.72479800  *  -0.55795400  *
    36       H          1.73311700  *   0.85646600  *  -1.52265900  *
    37       H          1.10791200  *   1.18025100  *   1.41650000  *
    38       H          2.22449700  *   3.37577800  *   1.71112400  *
    39       H          3.13908400  *   3.11091500  *   0.18927000  *
    40       H          3.21729000  *   1.61295200  *   2.61357200  *
    41       H          0.60438700  *   3.53443900  *  -0.13996700  *



          CARTESIAN COORDINATES 

    NO.       ATOM           X           Y           Z

     1         C         -2.5684     -1.2659     -1.8313
     2         C         -2.4859      0.1982     -1.3738
     3         C         -3.6476      0.5086     -0.4129
     4         C         -1.0575      0.5354     -0.8337
     5         N         -0.6794     -0.2804      0.3355
     6         C         -1.3256     -0.1173      1.6438
     7         C          0.4073     -1.2195      0.2280
     8         C          0.1665     -2.5691      0.5348
     9         C          1.1913     -3.5111      0.4566
    10         C          2.4719     -3.1181      0.0752
    11         C          2.7345     -1.7804     -0.2236
    12         C          1.7195     -0.8073     -0.1397
    13         C          2.0731      0.6316     -0.4912
    14         C          1.5225      1.6776      0.5180
    15         C          2.6492      2.5927      1.0416
    16         O          3.6161      1.8496      1.7357
    17         N          0.4654      2.4984     -0.0976
    18         C         -0.7999      2.0113     -0.5858
    19         O         -1.6743      2.8575     -0.9159
    20         H         -2.4547     -1.9552     -0.9683
    21         H         -3.5500     -1.4614     -2.3136
    22         H         -1.7718     -1.4864     -2.5735
    23         H         -2.6457      0.8211     -2.2828
    24         H         -4.6056      0.4916     -0.9751
    25         H         -3.5477      1.5131      0.0437
    26         H         -3.7246     -0.2514      0.3903
    27         H         -0.3919      0.2729     -1.6825
    28         H         -1.8966      0.8317      1.6953
    29         H         -2.0048     -0.9724      1.8392
    30         H         -0.5615     -0.0906      2.4489
    31         H         -0.8245     -2.8938      0.8250
    32         H          0.9910     -4.5491      0.6891
    33         H          3.2647     -3.8522      0.0102
    34         H          3.7394     -1.5053     -0.5195
    35         H          3.1795      0.7248     -0.5580
    36         H          1.7331      0.8565     -1.5227
    37         H          1.1079      1.1803      1.4165
    38         H          2.2245      3.3758      1.7111
    39         H          3.1391      3.1109      0.1893
    40         H          3.2173      1.6130      2.6136
    41         H          0.6044      3.5344     -0.1400

 General Reference for PM7:
 "Optimization of Parameters for Semiempirical Methods VI: More Modifications to the 
 NDDO Approximations and Re-optimization of Parameters", J. J. P. Stewart, J. Mol. Mod., 1:32, 19 (2013)
 https://link.springer.com/article/10.1007/s00894-012-1667-x

           Empirical Formula: C15 H22 N2 O2  =    41 atoms



      MOLECULAR POINT GROUP   :   C1  


      RHF CALCULATION, NO. OF DOUBLY OCCUPIED LEVELS = 52


          Geometry optimization using L-BFGS
 CYCLE:     1 TIME:   0.039 TIME LEFT:  2.00D  GRAD.:   150.408 HEAT: -57.87615
 CYCLE:     2 TIME:   0.023 TIME LEFT:  2.00D  GRAD.:   147.305 HEAT: -58.09991
 CYCLE:     3 TIME:   0.023 TIME LEFT:  2.00D  GRAD.:    51.960 HEAT: -64.44944
 CYCLE:     4 TIME:   0.020 TIME LEFT:  2.00D  GRAD.:   147.375 HEAT: -58.09975
 CYCLE:     5 TIME:   0.023 TIME LEFT:  2.00D  GRAD.:    52.012 HEAT: -64.44980
 CYCLE:     6 TIME:   0.020 TIME LEFT:  2.00D  GRAD.:    36.264 HEAT: -65.21171
 CYCLE:     7 TIME:   0.023 TIME LEFT:  2.00D  GRAD.:    28.491 HEAT: -66.54336
 CYCLE:     8 TIME:   0.023 TIME LEFT:  2.00D  GRAD.:    28.730 HEAT: -67.19294
 CYCLE:     9 TIME:   0.023 TIME LEFT:  2.00D  GRAD.:    21.555 HEAT: -67.63822
 CYCLE:    10 TIME:   0.020 TIME LEFT:  2.00D  GRAD.:    15.716 HEAT: -67.86389
 CYCLE:    11 TIME:   0.020 TIME LEFT:  2.00D  GRAD.:    13.160 HEAT: -68.09992
 CYCLE:    12 TIME:   0.023 TIME LEFT:  2.00D  GRAD.:    15.153 HEAT: -68.24462
 CYCLE:    13 TIME:   0.020 TIME LEFT:  2.00D  GRAD.:    10.293 HEAT: -68.38509
 CYCLE:    14 TIME:   0.023 TIME LEFT:  2.00D  GRAD.:    11.390 HEAT: -68.51432
 CYCLE:    15 TIME:   0.020 TIME LEFT:  2.00D  GRAD.:    12.830 HEAT: -68.63619
 CYCLE:    16 TIME:   0.023 TIME LEFT:  2.00D  GRAD.:    10.465 HEAT: -68.73767
 CYCLE:    17 TIME:   0.020 TIME LEFT:  2.00D  GRAD.:     9.121 HEAT: -68.81987
 CYCLE:    18 TIME:   0.023 TIME LEFT:  2.00D  GRAD.:    11.118 HEAT: -68.92544
 CYCLE:    19 TIME:   0.023 TIME LEFT:  2.00D  GRAD.:    14.874 HEAT: -69.01447
 CYCLE:    20 TIME:   0.020 TIME LEFT:  2.00D  GRAD.:     8.282 HEAT: -69.10461
 CYCLE:    21 TIME:   0.023 TIME LEFT:  2.00D  GRAD.:     7.697 HEAT: -69.18077
 CYCLE:    22 TIME:   0.020 TIME LEFT:  2.00D  GRAD.:    11.720 HEAT: -69.24923
 CYCLE:    23 TIME:   0.023 TIME LEFT:  2.00D  GRAD.:    12.682 HEAT: -69.34832
 CYCLE:    24 TIME:   0.020 TIME LEFT:  2.00D  GRAD.:    10.257 HEAT: -69.44359
 CYCLE:    25 TIME:   0.020 TIME LEFT:  2.00D  GRAD.:     7.861 HEAT: -69.52874
 CYCLE:    26 TIME:   0.023 TIME LEFT:  2.00D  GRAD.:     9.616 HEAT: -69.60755
 CYCLE:    27 TIME:   0.023 TIME LEFT:  2.00D  GRAD.:    10.783 HEAT: -69.69143
 CYCLE:    28 TIME:   0.020 TIME LEFT:  2.00D  GRAD.:     8.641 HEAT: -69.77333
 CYCLE:    29 TIME:   0.023 TIME LEFT:  2.00D  GRAD.:     8.997 HEAT: -69.86617
 CYCLE:    30 TIME:   0.020 TIME LEFT:  2.00D  GRAD.:    14.694 HEAT: -69.94743
 CYCLE:    31 TIME:   0.023 TIME LEFT:  2.00D  GRAD.:    10.025 HEAT: -70.03326
 CYCLE:    32 TIME:   0.020 TIME LEFT:  2.00D  GRAD.:     7.725 HEAT: -70.13999
 CYCLE:    33 TIME:   0.023 TIME LEFT:  2.00D  GRAD.:     9.136 HEAT: -70.19044
 CYCLE:    34 TIME:   0.020 TIME LEFT:  2.00D  GRAD.:     7.913 HEAT: -70.25933
 CYCLE:    35 TIME:   0.023 TIME LEFT:  2.00D  GRAD.:     9.305 HEAT: -70.35280
 CYCLE:    36 TIME:   0.020 TIME LEFT:  2.00D  GRAD.:    15.792 HEAT: -70.38509
 CYCLE:    37 TIME:   0.023 TIME LEFT:  2.00D  GRAD.:     6.186 HEAT: -70.44743
 CYCLE:    38 TIME:   0.023 TIME LEFT:  2.00D  GRAD.:     5.142 HEAT: -70.47781
 CYCLE:    39 TIME:   0.020 TIME LEFT:  2.00D  GRAD.:     7.694 HEAT: -70.52027
 CYCLE:    40 TIME:   0.023 TIME LEFT:  2.00D  GRAD.:    13.656 HEAT: -70.55275
 CYCLE:    41 TIME:   0.020 TIME LEFT:  2.00D  GRAD.:     6.074 HEAT: -70.59769
 CYCLE:    42 TIME:   0.020 TIME LEFT:  2.00D  GRAD.:     4.692 HEAT: -70.62177
 CYCLE:    43 TIME:   0.023 TIME LEFT:  2.00D  GRAD.:     4.994 HEAT: -70.64679
 CYCLE:    44 TIME:   0.020 TIME LEFT:  2.00D  GRAD.:     5.008 HEAT: -70.68238
 CYCLE:    45 TIME:   0.023 TIME LEFT:  2.00D  GRAD.:    18.423 HEAT: -70.65387
 CYCLE:    46 TIME:   0.020 TIME LEFT:  2.00D  GRAD.:     3.632 HEAT: -70.72237
 CYCLE:    47 TIME:   0.023 TIME LEFT:  2.00D  GRAD.:     2.474 HEAT: -70.73031
 CYCLE:    48 TIME:   0.020 TIME LEFT:  2.00D  GRAD.:     3.476 HEAT: -70.74457
 CYCLE:    49 TIME:   0.020 TIME LEFT:  2.00D  GRAD.:     7.416 HEAT: -70.75059
 CYCLE:    50 TIME:   0.023 TIME LEFT:  2.00D  GRAD.:     3.165 HEAT: -70.76278
 CYCLE:    51 TIME:   0.020 TIME LEFT:  2.00D  GRAD.:     2.375 HEAT: -70.77008
 CYCLE:    52 TIME:   0.023 TIME LEFT:  2.00D  GRAD.:     2.857 HEAT: -70.77729
 CYCLE:    53 TIME:   0.020 TIME LEFT:  2.00D  GRAD.:     3.798 HEAT: -70.79079
 CYCLE:    54 TIME:   0.027 TIME LEFT:  2.00D  GRAD.:     8.670 HEAT: -70.79584
 CYCLE:    55 TIME:   0.020 TIME LEFT:  2.00D  GRAD.:     3.113 HEAT: -70.81510
 CYCLE:    56 TIME:   0.023 TIME LEFT:  2.00D  GRAD.:     2.601 HEAT: -70.82333
 CYCLE:    57 TIME:   0.020 TIME LEFT:  2.00D  GRAD.:     5.129 HEAT: -70.83584
 CYCLE:    58 TIME:   0.023 TIME LEFT:  2.00D  GRAD.:     4.992 HEAT: -70.84812
 CYCLE:    59 TIME:   0.020 TIME LEFT:  2.00D  GRAD.:     3.729 HEAT: -70.85983
 CYCLE:    60 TIME:   0.023 TIME LEFT:  2.00D  GRAD.:     4.166 HEAT: -70.87555
 CYCLE:    61 TIME:   0.020 TIME LEFT:  2.00D  GRAD.:     5.815 HEAT: -70.88383
 CYCLE:    62 TIME:   0.027 TIME LEFT:  2.00D  GRAD.:     3.302 HEAT: -70.89470
 CYCLE:    63 TIME:   0.020 TIME LEFT:  2.00D  GRAD.:     2.692 HEAT: -70.90622
 CYCLE:    64 TIME:   0.020 TIME LEFT:  2.00D  GRAD.:     2.698 HEAT: -70.91476
 CYCLE:    65 TIME:   0.023 TIME LEFT:  2.00D  GRAD.:     4.112 HEAT: -70.92480
 CYCLE:    66 TIME:   0.020 TIME LEFT:  2.00D  GRAD.:     7.961 HEAT: -70.92211
 CYCLE:    67 TIME:   0.023 TIME LEFT:  2.00D  GRAD.:     2.599 HEAT: -70.93639
 CYCLE:    68 TIME:   0.020 TIME LEFT:  2.00D  GRAD.:     1.835 HEAT: -70.94037
 CYCLE:    69 TIME:   0.023 TIME LEFT:  2.00D  GRAD.:     1.999 HEAT: -70.94869
 CYCLE:    70 TIME:   0.023 TIME LEFT:  2.00D  GRAD.:     3.382 HEAT: -70.96356
 CYCLE:    71 TIME:   0.020 TIME LEFT:  2.00D  GRAD.:    14.421 HEAT: -70.93794
 CYCLE:    72 TIME:   0.023 TIME LEFT:  2.00D  GRAD.:     2.568 HEAT: -70.97270
 CYCLE:    73 TIME:   0.020 TIME LEFT:  2.00D  GRAD.:     1.869 HEAT: -70.97567
 CYCLE:    74 TIME:   0.023 TIME LEFT:  2.00D  GRAD.:     4.153 HEAT: -70.98568
 CYCLE:    75 TIME:   0.020 TIME LEFT:  2.00D  GRAD.:     3.484 HEAT: -70.99189
 CYCLE:    76 TIME:   0.020 TIME LEFT:  2.00D  GRAD.:     2.967 HEAT: -70.99942
 CYCLE:    77 TIME:   0.023 TIME LEFT:  2.00D  GRAD.:     3.473 HEAT: -71.01011
 CYCLE:    78 TIME:   0.020 TIME LEFT:  2.00D  GRAD.:     4.781 HEAT: -71.02135
 CYCLE:    79 TIME:   0.023 TIME LEFT:  2.00D  GRAD.:     3.624 HEAT: -71.03389
 CYCLE:    80 TIME:   0.020 TIME LEFT:  2.00D  GRAD.:     3.334 HEAT: -71.04971
 CYCLE:    81 TIME:   0.023 TIME LEFT:  2.00D  GRAD.:     4.309 HEAT: -71.06527
 CYCLE:    82 TIME:   0.023 TIME LEFT:  2.00D  GRAD.:    11.936 HEAT: -71.05818
 CYCLE:    83 TIME:   0.023 TIME LEFT:  2.00D  GRAD.:     3.237 HEAT: -71.08615
 CYCLE:    84 TIME:   0.020 TIME LEFT:  2.00D  GRAD.:     2.338 HEAT: -71.09208
 CYCLE:    85 TIME:   0.023 TIME LEFT:  2.00D  GRAD.:     2.940 HEAT: -71.10151
 CYCLE:    86 TIME:   0.020 TIME LEFT:  2.00D  GRAD.:     3.249 HEAT: -71.11346
 CYCLE:    87 TIME:   0.023 TIME LEFT:  2.00D  GRAD.:     7.201 HEAT: -71.11247
 CYCLE:    88 TIME:   0.020 TIME LEFT:  2.00D  GRAD.:     2.388 HEAT: -71.12757
 CYCLE:    89 TIME:   0.023 TIME LEFT:  2.00D  GRAD.:     1.820 HEAT: -71.13227
 CYCLE:    90 TIME:   0.020 TIME LEFT:  2.00D  GRAD.:     2.316 HEAT: -71.13796
 CYCLE:    91 TIME:   0.023 TIME LEFT:  2.00D  GRAD.:     3.781 HEAT: -71.14432
 CYCLE:    92 TIME:   0.023 TIME LEFT:  2.00D  GRAD.:     5.000 HEAT: -71.14557
 CYCLE:    93 TIME:   0.020 TIME LEFT:  2.00D  GRAD.:     1.905 HEAT: -71.15048
 CYCLE:    94 TIME:   0.020 TIME LEFT:  2.00D  GRAD.:     1.517 HEAT: -71.15270
 CYCLE:    95 TIME:   0.023 TIME LEFT:  2.00D  GRAD.:     1.727 HEAT: -71.15554
 CYCLE:    96 TIME:   0.023 TIME LEFT:  2.00D  GRAD.:     2.405 HEAT: -71.16269
 CYCLE:    97 TIME:   0.023 TIME LEFT:  2.00D  GRAD.:     7.276 HEAT: -71.16110
 CYCLE:    98 TIME:   0.020 TIME LEFT:  2.00D  GRAD.:     2.450 HEAT: -71.17168
 CYCLE:    99 TIME:   0.023 TIME LEFT:  2.00D  GRAD.:     1.480 HEAT: -71.17564
 CYCLE:   100 TIME:   0.027 TIME LEFT:  2.00D  GRAD.:     2.105 HEAT: -71.17983
 CYCLE:   101 TIME:   0.020 TIME LEFT:  2.00D  GRAD.:     3.119 HEAT: -71.18611
 CYCLE:   102 TIME:   0.023 TIME LEFT:  2.00D  GRAD.:     2.407 HEAT: -71.19386
 CYCLE:   103 TIME:   0.020 TIME LEFT:  2.00D  GRAD.:     2.638 HEAT: -71.19820
 CYCLE:   104 TIME:   0.020 TIME LEFT:  2.00D  GRAD.:     2.173 HEAT: -71.20138
 CYCLE:   105 TIME:   0.023 TIME LEFT:  2.00D  GRAD.:     1.896 HEAT: -71.20681
 CYCLE:   106 TIME:   0.023 TIME LEFT:  2.00D  GRAD.:     3.302 HEAT: -71.21187
 CYCLE:   107 TIME:   0.020 TIME LEFT:  2.00D  GRAD.:     3.511 HEAT: -71.21509
 CYCLE:   108 TIME:   0.023 TIME LEFT:  2.00D  GRAD.:     1.981 HEAT: -71.21836
 CYCLE:   109 TIME:   0.023 TIME LEFT:  2.00D  GRAD.:     1.955 HEAT: -71.22212
 CYCLE:   110 TIME:   0.020 TIME LEFT:  2.00D  GRAD.:     2.040 HEAT: -71.22570
 CYCLE:   111 TIME:   0.023 TIME LEFT:  2.00D  GRAD.:     2.147 HEAT: -71.23056
 CYCLE:   112 TIME:   0.020 TIME LEFT:  2.00D  GRAD.:     3.128 HEAT: -71.23252
 CYCLE:   113 TIME:   0.023 TIME LEFT:  2.00D  GRAD.:     1.759 HEAT: -71.23661
 CYCLE:   114 TIME:   0.020 TIME LEFT:  2.00D  GRAD.:     1.435 HEAT: -71.23931
 CYCLE:   115 TIME:   0.023 TIME LEFT:  2.00D  GRAD.:     2.974 HEAT: -71.24231
 CYCLE:   116 TIME:   0.023 TIME LEFT:  2.00D  GRAD.:     1.994 HEAT: -71.24487
 CYCLE:   117 TIME:   0.023 TIME LEFT:  2.00D  GRAD.:     1.479 HEAT: -71.24748
 CYCLE:   118 TIME:   0.020 TIME LEFT:  2.00D  GRAD.:     1.810 HEAT: -71.25062
 CYCLE:   119 TIME:   0.023 TIME LEFT:  2.00D  GRAD.:     2.629 HEAT: -71.25508
 CYCLE:   120 TIME:   0.023 TIME LEFT:  2.00D  GRAD.:     2.783 HEAT: -71.25893
 CYCLE:   121 TIME:   0.023 TIME LEFT:  2.00D  GRAD.:     3.280 HEAT: -71.26285
 CYCLE:   122 TIME:   0.020 TIME LEFT:  2.00D  GRAD.:     2.094 HEAT: -71.26890
 CYCLE:   123 TIME:   0.023 TIME LEFT:  2.00D  GRAD.:     2.376 HEAT: -71.27388
 CYCLE:   124 TIME:   0.023 TIME LEFT:  2.00D  GRAD.:     4.532 HEAT: -71.27741
 CYCLE:   125 TIME:   0.031 TIME LEFT:  2.00D  GRAD.:     2.964 HEAT: -71.28217
 CYCLE:   126 TIME:   0.023 TIME LEFT:  2.00D  GRAD.:     2.893 HEAT: -71.28182
 CYCLE:   127 TIME:   0.020 TIME LEFT:  2.00D  GRAD.:     3.043 HEAT: -71.29083
 CYCLE:   128 TIME:   0.023 TIME LEFT:  2.00D  GRAD.:     1.988 HEAT: -71.29545
 CYCLE:   129 TIME:   0.023 TIME LEFT:  2.00D  GRAD.:     1.739 HEAT: -71.29948
 CYCLE:   130 TIME:   0.023 TIME LEFT:  2.00D  GRAD.:     3.088 HEAT: -71.30346
 CYCLE:   131 TIME:   0.023 TIME LEFT:  2.00D  GRAD.:     5.781 HEAT: -71.31068
 CYCLE:   132 TIME:   0.020 TIME LEFT:  2.00D  GRAD.:     3.631 HEAT: -71.31809
 CYCLE:   133 TIME:   0.023 TIME LEFT:  2.00D  GRAD.:     2.891 HEAT: -71.32489
 CYCLE:   134 TIME:   0.023 TIME LEFT:  2.00D  GRAD.:     3.291 HEAT: -71.32855
 CYCLE:   135 TIME:   0.023 TIME LEFT:  2.00D  GRAD.:     8.432 HEAT: -71.32031
 CYCLE:   136 TIME:   0.020 TIME LEFT:  2.00D  GRAD.:     2.229 HEAT: -71.33960
 CYCLE:   137 TIME:   0.023 TIME LEFT:  2.00D  GRAD.:     1.474 HEAT: -71.34295
 CYCLE:   138 TIME:   0.023 TIME LEFT:  2.00D  GRAD.:     2.636 HEAT: -71.34216
 CYCLE:   139 TIME:   0.023 TIME LEFT:  2.00D  GRAD.:     4.092 HEAT: -71.34907
 CYCLE:   140 TIME:   0.020 TIME LEFT:  2.00D  GRAD.:     1.805 HEAT: -71.35363
 CYCLE:   141 TIME:   0.023 TIME LEFT:  2.00D  GRAD.:     1.467 HEAT: -71.35590
 CYCLE:   142 TIME:   0.023 TIME LEFT:  2.00D  GRAD.:     5.292 HEAT: -71.35725
 CYCLE:   143 TIME:   0.020 TIME LEFT:  2.00D  GRAD.:     2.700 HEAT: -71.36396
 CYCLE:   144 TIME:   0.023 TIME LEFT:  2.00D  GRAD.:     1.549 HEAT: -71.36671
 CYCLE:   145 TIME:   0.023 TIME LEFT:  2.00D  GRAD.:     2.973 HEAT: -71.37040
 CYCLE:   146 TIME:   0.023 TIME LEFT:  2.00D  GRAD.:     2.150 HEAT: -71.37434
 CYCLE:   147 TIME:   0.023 TIME LEFT:  2.00D  GRAD.:     4.205 HEAT: -71.37450
 CYCLE:   148 TIME:   0.020 TIME LEFT:  2.00D  GRAD.:     7.679 HEAT: -71.37474
 CYCLE:   149 TIME:   0.023 TIME LEFT:  2.00D  GRAD.:     2.018 HEAT: -71.38370
 CYCLE:   150 TIME:   0.023 TIME LEFT:  2.00D  GRAD.:     1.794 HEAT: -71.38710
 CYCLE:   151 TIME:   0.023 TIME LEFT:  2.00D  GRAD.:     2.278 HEAT: -71.39051
 CYCLE:   152 TIME:   0.020 TIME LEFT:  2.00D  GRAD.:     4.184 HEAT: -71.39559
 CYCLE:   153 TIME:   0.020 TIME LEFT:  2.00D  GRAD.:     1.955 HEAT: -71.40087
 CYCLE:   154 TIME:   0.023 TIME LEFT:  2.00D  GRAD.:     1.404 HEAT: -71.40300
 CYCLE:   155 TIME:   0.023 TIME LEFT:  2.00D  GRAD.:     1.606 HEAT: -71.40444
 CYCLE:   156 TIME:   0.023 TIME LEFT:  2.00D  GRAD.:     2.569 HEAT: -71.40776
 CYCLE:   157 TIME:   0.023 TIME LEFT:  2.00D  GRAD.:     2.201 HEAT: -71.40878
 CYCLE:   158 TIME:   0.020 TIME LEFT:  2.00D  GRAD.:     1.395 HEAT: -71.41160
 CYCLE:   159 TIME:   0.023 TIME LEFT:  2.00D  GRAD.:     1.459 HEAT: -71.41428
 CYCLE:   160 TIME:   0.023 TIME LEFT:  2.00D  GRAD.:     2.272 HEAT: -71.41605
 CYCLE:   161 TIME:   0.020 TIME LEFT:  2.00D  GRAD.:     1.519 HEAT: -71.41789
 CYCLE:   162 TIME:   0.023 TIME LEFT:  2.00D  GRAD.:     1.605 HEAT: -71.41968
 CYCLE:   163 TIME:   0.023 TIME LEFT:  2.00D  GRAD.:     1.698 HEAT: -71.42138
 CYCLE:   164 TIME:   0.020 TIME LEFT:  2.00D  GRAD.:     1.265 HEAT: -71.42282
 CYCLE:   165 TIME:   0.023 TIME LEFT:  2.00D  GRAD.:     2.102 HEAT: -71.42474
 CYCLE:   166 TIME:   0.020 TIME LEFT:  2.00D  GRAD.:     1.247 HEAT: -71.42636
 CYCLE:   167 TIME:   0.020 TIME LEFT:  2.00D  GRAD.:     1.119 HEAT: -71.42726
 CYCLE:   168 TIME:   0.023 TIME LEFT:  2.00D  GRAD.:     1.754 HEAT: -71.42932
 CYCLE:   169 TIME:   0.023 TIME LEFT:  2.00D  GRAD.:     2.618 HEAT: -71.42976
 CYCLE:   170 TIME:   0.020 TIME LEFT:  2.00D  GRAD.:     0.908 HEAT: -71.43126

 -------------------------------------------------------------------------------
 PM7 XYZ

 Lipophilicity_1147 - geometry optimisation


     HERBERTS TEST WAS SATISFIED IN BFGS                      
     SCF FIELD WAS ACHIEVED                                   


                              PM7 CALCULATION
                                                       MOPAC v23.0.3 Linux
                                                       Fri Jul 25 16:20:42 2025




          FINAL HEAT OF FORMATION =        -71.43126 KCAL/MOL =    -298.86839 KJ/MOL


          COSMO AREA              =        276.65 SQUARE ANGSTROMS
          COSMO VOLUME            =        330.77 CUBIC ANGSTROMS

          GRADIENT NORM           =          0.90770          =       0.14176 PER ATOM
          IONIZATION POTENTIAL    =          8.617326 EV
          HOMO LUMO ENERGIES (EV) =         -8.617  0.050
          NO. OF FILLED LEVELS    =         52
          MOLECULAR WEIGHT        =        262.3510         POINT GROUP:  C1  

          MOLECULAR DIMENSIONS (Angstroms)

            Atom       Atom       Distance
            H    33    H    24     8.97720
            H    21    H    38     7.69562
            H    29    H    39     5.08425


          SCF CALCULATIONS        =        171

          WALL-CLOCK TIME         =      3.781 SECONDS
          COMPUTATION TIME        =          1 MINUTE AND 15.390 SECONDS




   ATOM   CHEMICAL          X               Y               Z
  NUMBER   SYMBOL      (ANGSTROMS)     (ANGSTROMS)     (ANGSTROMS)

     1       C         -2.46587411  *  -1.03376776  *  -2.20364208  *
     2       C         -2.45049708  *   0.30478812  *  -1.45634554  *
     3       C         -3.63629384  *   0.38896320  *  -0.49734529  *
     4       C         -1.05667050  *   0.47957917  *  -0.76541762  *
     5       N         -0.89117373  *  -0.49757952  *   0.31164188  *
     6       C         -1.29716723  *  -0.05797739  *   1.65974091  *
     7       C          0.32002232  *  -1.25675625  *   0.31927364  *
     8       C          0.15512050  *  -2.58315170  *   0.76460333  *
     9       C          1.21967704  *  -3.47112305  *   0.75594521  *
    10       C          2.46848272  *  -3.05338172  *   0.29598966  *
    11       C          2.64117710  *  -1.74297763  *  -0.12933297  *
    12       C          1.58590563  *  -0.82326243  *  -0.10908218  *
    13       C          1.90200028  *   0.58310537  *  -0.51494176  *
    14       C          1.47541664  *   1.59640411  *   0.56674427  *
    15       C          2.65415366  *   2.56356605  *   0.87078992  *
    16       O          3.81193176  *   1.83014750  *   1.18852531  *
    17       N          0.32045426  *   2.40519585  *   0.16732261  *
    18       C         -0.87876836  *   1.94448772  *  -0.35071988  *
    19       O         -1.74649445  *   2.78028800  *  -0.52078057  *
    20       H         -2.27362717  *  -1.86753539  *  -1.51469864  *
    21       H         -3.43832295  *  -1.21166954  *  -2.67380070  *
    22       H         -1.70488400  *  -1.07349447  *  -2.98841539  *
    23       H         -2.54400388  *   1.13939057  *  -2.19918609  *
    24       H         -4.58430250  *   0.32953894  *  -1.04374501  *
    25       H         -3.63767690  *   1.34388954  *   0.04490314  *
    26       H         -3.62477968  *  -0.42900076  *   0.23117396  *
    27       H         -0.30185660  *   0.26674606  *  -1.57830844  *
    28       H         -2.13164038  *   0.66241072  *   1.59905567  *
    29       H         -1.66108312  *  -0.94067364  *   2.21616858  *
    30       H         -0.48469836  *   0.40564768  *   2.24078421  *
    31       H         -0.82949025  *  -2.90949182  *   1.09929275  *
    32       H          1.07991377  *  -4.49411976  *   1.09999375  *
    33       H          3.30318849  *  -3.74956535  *   0.27478951  *
    34       H          3.62387232  *  -1.42093288  *  -0.47584832  *
    35       H          2.99881920  *   0.68905344  *  -0.69942386  *
    36       H          1.45689574  *   0.83420947  *  -1.49939034  *
    37       H          1.22377399  *   1.04052155  *   1.51226812  *
    38       H          2.41738306  *   3.25302678  *   1.69958484  *
    39       H          2.96024867  *   3.14191826  *  -0.02221144  *
    40       H          3.65456600  *   1.23377216  *   1.94974196  *
    41       H          0.36631205  *   3.39980794  *   0.37432274  *

                             CARTESIAN COORDINATES

   1    C       -2.465874114    -1.033767762    -2.203642078
   2    C       -2.450497082     0.304788123    -1.456345536
   3    C       -3.636293837     0.388963202    -0.497345291
   4    C       -1.056670503     0.479579174    -0.765417615
   5    N       -0.891173726    -0.497579522     0.311641876
   6    C       -1.297167235    -0.057977385     1.659740910
   7    C        0.320022317    -1.256756248     0.319273643
   8    C        0.155120503    -2.583151699     0.764603333
   9    C        1.219677038    -3.471123054     0.755945208
  10    C        2.468482718    -3.053381715     0.295989663
  11    C        2.641177097    -1.742977627    -0.129332972
  12    C        1.585905630    -0.823262430    -0.109082177
  13    C        1.902000279     0.583105373    -0.514941760
  14    C        1.475416644     1.596404107     0.566744265
  15    C        2.654153658     2.563566050     0.870789924
  16    O        3.811931761     1.830147498     1.188525306
  17    N        0.320454263     2.405195846     0.167322614
  18    C       -0.878768360     1.944487717    -0.350719875
  19    O       -1.746494453     2.780288000    -0.520780566
  20    H       -2.273627173    -1.867535387    -1.514698640
  21    H       -3.438322947    -1.211669543    -2.673800701
  22    H       -1.704884001    -1.073494471    -2.988415391
  23    H       -2.544003882     1.139390572    -2.199186087
  24    H       -4.584302505     0.329538943    -1.043745006
  25    H       -3.637676899     1.343889544     0.044903139
  26    H       -3.624779676    -0.429000759     0.231173961
  27    H       -0.301856596     0.266746057    -1.578308441
  28    H       -2.131640384     0.662410716     1.599055671
  29    H       -1.661083115    -0.940673643     2.216168581
  30    H       -0.484698356     0.405647679     2.240784207
  31    H       -0.829490253    -2.909491823     1.099292746
  32    H        1.079913768    -4.494119762     1.099993754
  33    H        3.303188494    -3.749565345     0.274789511
  34    H        3.623872319    -1.420932884    -0.475848321
  35    H        2.998819196     0.689053436    -0.699423857
  36    H        1.456895739     0.834209469    -1.499390337
  37    H        1.223773990     1.040521553     1.512268117
  38    H        2.417383064     3.253026778     1.699584844
  39    H        2.960248674     3.141918262    -0.022211444
  40    H        3.654566000     1.233772164     1.949741964
  41    H        0.366312051     3.399807937     0.374322737


           Empirical Formula: C15 H22 N2 O2  =    41 atoms



      MOLECULAR POINT GROUP   :   C1  


                  EIGENVALUES  
 -37.00615 -35.68698 -30.78449 -30.25999 -29.94341 -28.49334 -27.78359 -26.04155
 -25.63590 -25.01073 -24.33740 -23.47096 -22.93975 -21.60038 -20.99244 -20.68654
 -19.96098 -18.68129 -17.93863 -17.68845 -17.30102 -16.71460 -16.50649 -16.04434
 -15.81708 -15.41212 -15.10240 -14.89519 -14.73709 -14.66520 -14.24134 -14.16026
 -13.86592 -13.71451 -13.55926 -13.32170 -13.22002 -12.94453 -12.74551 -12.50739
 -12.44750 -12.11690 -12.06686 -11.66845 -11.63238 -11.15881 -11.11618 -10.56464
 -10.00057  -9.84861  -9.73194  -8.61733   0.04987   0.13374   1.13883   1.57338
   2.26164   2.38295   2.58460   2.98522   3.16495   3.51319   3.58290   3.84291
   4.27406   4.42837   4.53973   4.59655   4.71757   4.78844   4.93558   4.96819
   4.99150   5.00421   5.11827   5.18841   5.21753   5.26800   5.45288   5.50867
   5.61014   5.67369   5.81743   5.83731   5.93385   6.05901   6.08060   6.10394
   6.16766   6.20304   6.22073   6.27047   6.32359   6.35390   6.38942   6.51995
   7.30630   7.46195


              NET ATOMIC CHARGES AND DIPOLE CONTRIBUTIONS

  ATOM NO.   TYPE          CHARGE      No. of ELECS.   s-Pop       p-Pop       
    1          C          -0.454817        4.4548     1.05633     3.39848
    2          C          -0.046701        4.0467     1.06317     2.98353
    3          C          -0.447073        4.4471     1.05459     3.39248
    4          C          -0.030014        4.0300     1.08853     2.94148
    5          N          -0.427972        5.4280     1.62659     3.80138
    6          C          -0.250316        4.2503     1.06214     3.18818
    7          C           0.157495        3.8425     1.06610     2.77641
    8          C          -0.185412        4.1854     1.08498     3.10043
    9          C          -0.129624        4.1296     1.08276     3.04686
   10          C          -0.176504        4.1765     1.07978     3.09672
   11          C          -0.136270        4.1363     1.08566     3.05061
   12          C          -0.091195        4.0912     1.06929     3.02190
   13          C          -0.313351        4.3134     1.06213     3.25122
   14          C           0.056680        3.9433     1.07867     2.86465
   15          C          -0.039842        4.0398     1.09516     2.94468
   16          O          -0.524623        6.5246     1.84951     4.67511
   17          N          -0.635010        5.6350     1.56943     4.06558
   18          C           0.544357        3.4556     1.10802     2.34762
   19          O          -0.535285        6.5353     1.88127     4.65401
   20          H           0.160324        0.8397     0.83968
   21          H           0.144827        0.8552     0.85517
   22          H           0.136401        0.8636     0.86360
   23          H           0.146196        0.8538     0.85380
   24          H           0.141519        0.8585     0.85848
   25          H           0.156706        0.8433     0.84329
   26          H           0.149568        0.8504     0.85043
   27          H           0.164486        0.8355     0.83551
   28          H           0.164371        0.8356     0.83563
   29          H           0.151402        0.8486     0.84860
   30          H           0.122953        0.8770     0.87705
   31          H           0.166158        0.8338     0.83384
   32          H           0.149963        0.8500     0.85004
   33          H           0.152421        0.8476     0.84758
   34          H           0.154260        0.8457     0.84574
   35          H           0.183408        0.8166     0.81659
   36          H           0.166118        0.8339     0.83388
   37          H           0.140027        0.8600     0.85997
   38          H           0.122842        0.8772     0.87716
   39          H           0.157022        0.8430     0.84298
   40          H           0.314673        0.6853     0.68533
   41          H           0.319833        0.6802     0.68017
 DIPOLE           X         Y         Z       TOTAL
 POINT-CHG.     1.430    -1.942     1.477     2.828
 HYBRID         0.444     0.771     0.542     1.042
 SUM            1.874    -1.171     2.019     2.993


          ATOMIC ORBITAL ELECTRON POPULATIONS

     Atom    s        px        py        pz   
    1  C   1.05633   1.16834   1.09006   1.14008
    2  C   1.06317   0.93446   1.03211   1.01696
    3  C   1.05459   1.08320   1.17869   1.13059
    4  C   1.08853   1.09090   0.88533   0.96526
    5  N   1.62659   1.33853   1.35986   1.10299
    6  C   1.06214   1.13479   1.14795   0.90543
    7  C   1.06610   0.86203   0.94052   0.97386
    8  C   1.08498   1.07248   0.98272   1.04524
    9  C   1.08276   0.98681   1.06608   0.99397
   10  C   1.07978   1.04636   1.02838   1.02198
   11  C   1.08566   1.05731   0.99315   1.00014
   12  C   1.06929   0.98037   0.98001   1.06152
   13  C   1.06213   1.18134   0.98686   1.08302
   14  C   1.07867   0.86393   0.96045   1.04027
   15  C   1.09516   0.85938   0.96678   1.11852
   16  O   1.84951   1.40446   1.65148   1.61917
   17  N   1.56943   1.20581   1.20101   1.65876
   18  C   1.10802   0.73984   0.88362   0.72416
   19  O   1.88127   1.49683   1.57586   1.58132
   20  H   0.83968
   21  H   0.85517
   22  H   0.86360
   23  H   0.85380
   24  H   0.85848
   25  H   0.84329
   26  H   0.85043
   27  H   0.83551
   28  H   0.83563
   29  H   0.84860
   30  H   0.87705
   31  H   0.83384
   32  H   0.85004
   33  H   0.84758
   34  H   0.84574
   35  H   0.81659
   36  H   0.83388
   37  H   0.85997
   38  H   0.87716
   39  H   0.84298
   40  H   0.68533
   41  H   0.68017

 **********************
 *                    *
 * JOB ENDED NORMALLY *
 *                    *
 **********************



 TOTAL JOB TIME:             3.78 SECONDS

 == MOPAC DONE ==
