 *******************************************************************************
 **                                                                           **
 **                              MOPAC v23.0.3                                **
 **                                                                           **
 *******************************************************************************
 **          Digital Object Identifier (DOI): 10.5281/zenodo.6511958          **
 **    Visit the DOI location for information on how to cite this program.    **
 *******************************************************************************

                              PM7 CALCULATION RESULTS

 *******************************************************************************
 *  CALCULATION DONE:                                Fri Jul 25 19:11:17 2025  *
 *  PM7        - The PM7 Hamiltonian to be used
 *  XYZ        - CARTESIAN COORDINATE SYSTEM TO BE USED
 *  T=         - A TIME OF 172800.0 SECONDS REQUESTED
 *  DUMP=N     - RESTART FILE WRITTEN EVERY 7200.0 SECONDS REQUESTED
 *******************************************************************************
PM7 XYZ

 Lipophilicity_228 - geometry optimisation
   ATOM   CHEMICAL          X               Y               Z
  NUMBER   SYMBOL      (ANGSTROMS)     (ANGSTROMS)     (ANGSTROMS)

     1       N          7.75163700  *   1.79483500  *  -0.16447100  *
     2       C          6.67970800  *   1.37633100  *  -0.28722000  *
     3       C          5.34635400  *   0.85576800  *  -0.43989600  *
     4       C          5.15250800  *  -0.47514400  *  -0.82836700  *
     5       C          3.85725800  *  -0.98000900  *  -0.97876500  *
     6       C          2.74250900  *  -0.16579700  *  -0.72706500  *
     7       N          1.42153000  *  -0.70197300  *  -0.91232000  *
     8       C          0.28641600  *  -0.34688300  *  -0.10979900  *
     9       N          0.44345800  *   0.32505100  *   1.06284700  *
    10       C         -0.62468500  *   0.63725400  *   1.83963200  *
    11       C         -1.90713400  *   0.26024200  *   1.44550200  *
    12       C         -2.06001700  *  -0.44429200  *   0.24147900  *
    13       N         -3.34820300  *  -0.87163600  *  -0.22775900  *
    14       C         -4.58736100  *  -0.63669800  *   0.51063500  *
    15       C         -5.12599300  *   0.77448900  *   0.34712100  *
    16       C         -5.79453500  *  -0.38362300  *  -0.37647000  *
    17       N         -0.95747500  *  -0.73283100  *  -0.50106500  *
    18       C          2.94395100  *   1.17744200  *  -0.36045500  *
    19       C          4.23959900  *   1.68203400  *  -0.21105300  *
    20       H          6.00143900  *  -1.12140400  *  -1.01690700  *
    21       H          3.72068900  *  -2.01056100  *  -1.28183200  *
    22       H          1.29203400  *  -1.45743400  *  -1.62311400  *
    23       H         -0.47712000  *   1.17599300  *   2.76605500  *
    24       H         -2.75310800  *   0.51045300  *   2.07145700  *
    25       H         -3.38996400  *  -1.45293300  *  -1.09545200  *
    26       H         -4.74224200  *  -1.13526900  *   1.49089800  *
    27       H         -4.53062500  *   1.44069800  *  -0.31368400  *
    28       H         -5.69391900  *   1.15089000  *   1.22381500  *
    29       H         -6.76350300  *  -0.69369100  *   0.06822900  *
    30       H         -5.60520200  *  -0.39880700  *  -1.47123000  *
    31       H          2.10402300  *   1.84345200  *  -0.21458500  *
    32       H          4.37797400  *   2.71819300  *   0.07383900  *



          CARTESIAN COORDINATES 

    NO.       ATOM           X           Y           Z

     1         N          7.7516      1.7948     -0.1645
     2         C          6.6797      1.3763     -0.2872
     3         C          5.3464      0.8558     -0.4399
     4         C          5.1525     -0.4751     -0.8284
     5         C          3.8573     -0.9800     -0.9788
     6         C          2.7425     -0.1658     -0.7271
     7         N          1.4215     -0.7020     -0.9123
     8         C          0.2864     -0.3469     -0.1098
     9         N          0.4435      0.3251      1.0628
    10         C         -0.6247      0.6373      1.8396
    11         C         -1.9071      0.2602      1.4455
    12         C         -2.0600     -0.4443      0.2415
    13         N         -3.3482     -0.8716     -0.2278
    14         C         -4.5874     -0.6367      0.5106
    15         C         -5.1260      0.7745      0.3471
    16         C         -5.7945     -0.3836     -0.3765
    17         N         -0.9575     -0.7328     -0.5011
    18         C          2.9440      1.1774     -0.3605
    19         C          4.2396      1.6820     -0.2111
    20         H          6.0014     -1.1214     -1.0169
    21         H          3.7207     -2.0106     -1.2818
    22         H          1.2920     -1.4574     -1.6231
    23         H         -0.4771      1.1760      2.7661
    24         H         -2.7531      0.5105      2.0715
    25         H         -3.3900     -1.4529     -1.0955
    26         H         -4.7422     -1.1353      1.4909
    27         H         -4.5306      1.4407     -0.3137
    28         H         -5.6939      1.1509      1.2238
    29         H         -6.7635     -0.6937      0.0682
    30         H         -5.6052     -0.3988     -1.4712
    31         H          2.1040      1.8435     -0.2146
    32         H          4.3780      2.7182      0.0738

 General Reference for PM7:
 "Optimization of Parameters for Semiempirical Methods VI: More Modifications to the 
 NDDO Approximations and Re-optimization of Parameters", J. J. P. Stewart, J. Mol. Mod., 1:32, 19 (2013)
 https://link.springer.com/article/10.1007/s00894-012-1667-x

           Empirical Formula: C14 H13 N5  =    32 atoms



      MOLECULAR POINT GROUP   :   C1  


      RHF CALCULATION, NO. OF DOUBLY OCCUPIED LEVELS = 47


          Geometry optimization using EF

          DIAGONAL MATRIX USED AS START HESSIAN

 CYCLE:     1 TIME:   0.023 TIME LEFT:  2.00D  GRAD.:   134.844 HEAT:  133.4798
 CYCLE:     2 TIME:   0.039 TIME LEFT:  2.00D  GRAD.:   112.031 HEAT:  127.3385
 CYCLE:     3 TIME:   0.023 TIME LEFT:  2.00D  GRAD.:   253.198 HEAT:  127.0016
 CYCLE:     4 TIME:   0.016 TIME LEFT:  2.00D  GRAD.:   181.780 HEAT:  125.0693
 CYCLE:     5 TIME:   0.016 TIME LEFT:  2.00D  GRAD.:   133.188 HEAT:  122.0720
 CYCLE:     6 TIME:   0.023 TIME LEFT:  2.00D  GRAD.:   148.982 HEAT:  121.6109
 CYCLE:     7 TIME:   0.016 TIME LEFT:  2.00D  GRAD.:   161.585 HEAT:  121.2495
 CYCLE:     8 TIME:   0.023 TIME LEFT:  2.00D  GRAD.:   163.878 HEAT:  121.1931
 CYCLE:     9 TIME:   0.031 TIME LEFT:  2.00D  GRAD.:    60.617 HEAT:  117.3869
 CYCLE:    10 TIME:   0.039 TIME LEFT:  2.00D  GRAD.:    74.762 HEAT:  117.2841
 CYCLE:    11 TIME:   0.016 TIME LEFT:  2.00D  GRAD.:    22.965 HEAT:  116.5584
 CYCLE:    12 TIME:   0.031 TIME LEFT:  2.00D  GRAD.:    34.126 HEAT:  116.4483
 CYCLE:    13 TIME:   0.023 TIME LEFT:  2.00D  GRAD.:    23.661 HEAT:  116.2197
 CYCLE:    14 TIME:   0.016 TIME LEFT:  2.00D  GRAD.:    31.023 HEAT:  116.0605
 CYCLE:    15 TIME:   0.016 TIME LEFT:  2.00D  GRAD.:    40.939 HEAT:  115.9757
 CYCLE:    16 TIME:   0.016 TIME LEFT:  2.00D  GRAD.:    34.350 HEAT:  115.7509
 CYCLE:    17 TIME:   0.023 TIME LEFT:  2.00D  GRAD.:    28.985 HEAT:  115.5500
 CYCLE:    18 TIME:   0.016 TIME LEFT:  2.00D  GRAD.:    39.842 HEAT:  115.5485
 CYCLE:    19 TIME:   0.016 TIME LEFT:  2.00D  GRAD.:    26.308 HEAT:  115.2594
 CYCLE:    20 TIME:   0.055 TIME LEFT:  2.00D  GRAD.:    12.019 HEAT:  115.1032
 CYCLE:    21 TIME:   0.016 TIME LEFT:  2.00D  GRAD.:    17.470 HEAT:  115.0720
 CYCLE:    22 TIME:   0.016 TIME LEFT:  2.00D  GRAD.:    16.481 HEAT:  115.0085
 CYCLE:    23 TIME:   0.016 TIME LEFT:  2.00D  GRAD.:    18.519 HEAT:  114.9671
 CYCLE:    24 TIME:   0.016 TIME LEFT:  2.00D  GRAD.:    18.394 HEAT:  114.9347
 CYCLE:    25 TIME:   0.016 TIME LEFT:  2.00D  GRAD.:    16.653 HEAT:  114.8668
 CYCLE:    26 TIME:   0.023 TIME LEFT:  2.00D  GRAD.:    18.606 HEAT:  114.8607
 CYCLE:    27 TIME:   0.016 TIME LEFT:  2.00D  GRAD.:    18.965 HEAT:  114.8074
 CYCLE:    28 TIME:   0.031 TIME LEFT:  2.00D  GRAD.:     8.204 HEAT:  114.7568
 CYCLE:    29 TIME:   0.016 TIME LEFT:  2.00D  GRAD.:    15.014 HEAT:  114.7537
 CYCLE:    30 TIME:   0.016 TIME LEFT:  2.00D  GRAD.:     7.442 HEAT:  114.7069
 CYCLE:    31 TIME:   0.086 TIME LEFT:  2.00D  GRAD.:    11.284 HEAT:  114.7051
 CYCLE:    32 TIME:   0.016 TIME LEFT:  2.00D  GRAD.:     8.447 HEAT:  114.6856
 CYCLE:    33 TIME:   0.039 TIME LEFT:  2.00D  GRAD.:     6.934 HEAT:  114.6733
 CYCLE:    34 TIME:   0.016 TIME LEFT:  2.00D  GRAD.:     4.524 HEAT:  114.6601
 CYCLE:    35 TIME:   0.016 TIME LEFT:  2.00D  GRAD.:     6.751 HEAT:  114.6530
 CYCLE:    36 TIME:   0.016 TIME LEFT:  2.00D  GRAD.:     4.901 HEAT:  114.6370
 CYCLE:    37 TIME:   0.031 TIME LEFT:  2.00D  GRAD.:     7.616 HEAT:  114.6369
 CYCLE:    38 TIME:   0.016 TIME LEFT:  2.00D  GRAD.:     2.542 HEAT:  114.6199
 CYCLE:    39 TIME:   0.047 TIME LEFT:  2.00D  GRAD.:     2.690 HEAT:  114.6170
 CYCLE:    40 TIME:   0.023 TIME LEFT:  2.00D  GRAD.:     4.703 HEAT:  114.5828
 CYCLE:    41 TIME:   0.062 TIME LEFT:  2.00D  GRAD.:     6.826 HEAT:  114.5814
 CYCLE:    42 TIME:   0.016 TIME LEFT:  2.00D  GRAD.:     8.085 HEAT:  114.5778
 CYCLE:    43 TIME:   0.016 TIME LEFT:  2.00D  GRAD.:     8.716 HEAT:  114.5756
 CYCLE:    44 TIME:   0.016 TIME LEFT:  2.00D  GRAD.:     7.709 HEAT:  114.5695
 CYCLE:    45 TIME:   0.023 TIME LEFT:  2.00D  GRAD.:     5.916 HEAT:  114.5545
 CYCLE:    46 TIME:   0.016 TIME LEFT:  2.00D  GRAD.:     5.915 HEAT:  114.5482
 CYCLE:    47 TIME:   0.016 TIME LEFT:  2.00D  GRAD.:     7.860 HEAT:  114.5455
 CYCLE:    48 TIME:   0.016 TIME LEFT:  2.00D  GRAD.:     7.850 HEAT:  114.5443
 CYCLE:    49 TIME:   0.016 TIME LEFT:  2.00D  GRAD.:     6.117 HEAT:  114.5300
 CYCLE:    50 TIME:   0.016 TIME LEFT:  2.00D  GRAD.:     5.538 HEAT:  114.5232
 CYCLE:    51 TIME:   0.023 TIME LEFT:  2.00D  GRAD.:     6.011 HEAT:  114.5155
 CYCLE:    52 TIME:   0.016 TIME LEFT:  2.00D  GRAD.:     3.288 HEAT:  114.5011
 CYCLE:    53 TIME:   0.016 TIME LEFT:  2.00D  GRAD.:     4.842 HEAT:  114.4938
 CYCLE:    54 TIME:   0.023 TIME LEFT:  2.00D  GRAD.:     3.077 HEAT:  114.4776
 CYCLE:    55 TIME:   0.016 TIME LEFT:  2.00D  GRAD.:     7.599 HEAT:  114.4702
 CYCLE:    56 TIME:   0.016 TIME LEFT:  2.00D  GRAD.:     3.369 HEAT:  114.4332
 CYCLE:    57 TIME:   0.016 TIME LEFT:  2.00D  GRAD.:     9.305 HEAT:  114.4300
 CYCLE:    58 TIME:   0.023 TIME LEFT:  2.00D  GRAD.:     5.521 HEAT:  114.3812
 CYCLE:    59 TIME:   0.016 TIME LEFT:  2.00D  GRAD.:     9.438 HEAT:  114.3750
 CYCLE:    60 TIME:   0.016 TIME LEFT:  2.00D  GRAD.:     4.379 HEAT:  114.3002
 CYCLE:    61 TIME:   0.070 TIME LEFT:  2.00D  GRAD.:     5.875 HEAT:  114.2992
 CYCLE:    62 TIME:   0.016 TIME LEFT:  2.00D  GRAD.:     1.968 HEAT:  114.2772
 CYCLE:    63 TIME:   0.016 TIME LEFT:  2.00D  GRAD.:     3.611 HEAT:  114.2634
 CYCLE:    64 TIME:   0.039 TIME LEFT:  2.00D  GRAD.:     2.320 HEAT:  114.2341
 CYCLE:    65 TIME:   0.023 TIME LEFT:  2.00D  GRAD.:     3.247 HEAT:  114.2049
 CYCLE:    66 TIME:   0.023 TIME LEFT:  2.00D  GRAD.:     4.437 HEAT:  114.1684
 CYCLE:    67 TIME:   0.023 TIME LEFT:  2.00D  GRAD.:     3.949 HEAT:  114.1193
 CYCLE:    68 TIME:   0.016 TIME LEFT:  2.00D  GRAD.:     3.879 HEAT:  114.0525
 CYCLE:    69 TIME:   0.023 TIME LEFT:  2.00D  GRAD.:     4.261 HEAT:  113.9578
 CYCLE:    70 TIME:   0.016 TIME LEFT:  2.00D  GRAD.:     7.555 HEAT:  113.9065
 CYCLE:    71 TIME:   0.023 TIME LEFT:  2.00D  GRAD.:     3.779 HEAT:  113.8665
 CYCLE:    72 TIME:   0.078 TIME LEFT:  2.00D  GRAD.:     3.015 HEAT:  113.8585
 CYCLE:    73 TIME:   0.016 TIME LEFT:  2.00D  GRAD.:     1.434 HEAT:  113.8504
 CYCLE:    74 TIME:   0.023 TIME LEFT:  2.00D  GRAD.:     3.705 HEAT:  113.8396
 CYCLE:    75 TIME:   0.016 TIME LEFT:  2.00D  GRAD.:     3.864 HEAT:  113.8236
 CYCLE:    76 TIME:   0.023 TIME LEFT:  2.00D  GRAD.:     4.049 HEAT:  113.8062
 CYCLE:    77 TIME:   0.016 TIME LEFT:  2.00D  GRAD.:     4.170 HEAT:  113.7828
 CYCLE:    78 TIME:   0.016 TIME LEFT:  2.00D  GRAD.:     4.185 HEAT:  113.7638
 CYCLE:    79 TIME:   0.023 TIME LEFT:  2.00D  GRAD.:     4.677 HEAT:  113.7427
 CYCLE:    80 TIME:   0.016 TIME LEFT:  2.00D  GRAD.:     4.851 HEAT:  113.7202
 CYCLE:    81 TIME:   0.016 TIME LEFT:  2.00D  GRAD.:     3.535 HEAT:  113.7032
 CYCLE:    82 TIME:   0.023 TIME LEFT:  2.00D  GRAD.:     3.415 HEAT:  113.6884
 CYCLE:    83 TIME:   0.016 TIME LEFT:  2.00D  GRAD.:     4.266 HEAT:  113.6721
 CYCLE:    84 TIME:   0.016 TIME LEFT:  2.00D  GRAD.:     2.933 HEAT:  113.6575
 CYCLE:    85 TIME:   0.023 TIME LEFT:  2.00D  GRAD.:     2.684 HEAT:  113.6409
 CYCLE:    86 TIME:   0.016 TIME LEFT:  2.00D  GRAD.:     4.645 HEAT:  113.6285
 CYCLE:    87 TIME:   0.016 TIME LEFT:  2.00D  GRAD.:     5.018 HEAT:  113.6231
 CYCLE:    88 TIME:   0.016 TIME LEFT:  2.00D  GRAD.:     3.845 HEAT:  113.6038
 CYCLE:    89 TIME:   0.023 TIME LEFT:  2.00D  GRAD.:     2.260 HEAT:  113.5901
 CYCLE:    90 TIME:   0.016 TIME LEFT:  2.00D  GRAD.:     3.199 HEAT:  113.5798
 CYCLE:    91 TIME:   0.023 TIME LEFT:  2.00D  GRAD.:     2.287 HEAT:  113.5702
 CYCLE:    92 TIME:   0.016 TIME LEFT:  2.00D  GRAD.:     2.170 HEAT:  113.5614
 CYCLE:    93 TIME:   0.016 TIME LEFT:  2.00D  GRAD.:     1.637 HEAT:  113.5549
 CYCLE:    94 TIME:   0.023 TIME LEFT:  2.00D  GRAD.:     2.085 HEAT:  113.5489
 CYCLE:    95 TIME:   0.016 TIME LEFT:  2.00D  GRAD.:     2.165 HEAT:  113.5401
 CYCLE:    96 TIME:   0.023 TIME LEFT:  2.00D  GRAD.:     3.525 HEAT:  113.5299
 CYCLE:    97 TIME:   0.016 TIME LEFT:  2.00D  GRAD.:     2.975 HEAT:  113.5168
 CYCLE:    98 TIME:   0.023 TIME LEFT:  2.00D  GRAD.:     5.204 HEAT:  113.5016
 CYCLE:    99 TIME:   0.031 TIME LEFT:  2.00D  GRAD.:     3.807 HEAT:  113.4895
 CYCLE:   100 TIME:   0.016 TIME LEFT:  2.00D  GRAD.:     2.070 HEAT:  113.4777
 CYCLE:   101 TIME:   0.023 TIME LEFT:  2.00D  GRAD.:     2.574 HEAT:  113.4692
 CYCLE:   102 TIME:   0.016 TIME LEFT:  2.00D  GRAD.:     1.871 HEAT:  113.4617
 CYCLE:   103 TIME:   0.023 TIME LEFT:  2.00D  GRAD.:     2.511 HEAT:  113.4532
 CYCLE:   104 TIME:   0.016 TIME LEFT:  2.00D  GRAD.:     1.447 HEAT:  113.4486
 CYCLE:   105 TIME:   0.023 TIME LEFT:  2.00D  GRAD.:     2.174 HEAT:  113.4446
 CYCLE:   106 TIME:   0.016 TIME LEFT:  2.00D  GRAD.:     2.250 HEAT:  113.4426
 CYCLE:   107 TIME:   0.016 TIME LEFT:  2.00D  GRAD.:     1.293 HEAT:  113.4390
 CYCLE:   108 TIME:   0.055 TIME LEFT:  2.00D  GRAD.:     1.666 HEAT:  113.4374
 CYCLE:   109 TIME:   0.023 TIME LEFT:  2.00D  GRAD.:     1.065 HEAT:  113.4351
 CYCLE:   110 TIME:   0.031 TIME LEFT:  2.00D  GRAD.:     0.999 HEAT:  113.4310

     GRADIENT =  0.99938 IS LESS THAN CUTOFF =  1.00000



 -------------------------------------------------------------------------------
 PM7 XYZ

 Lipophilicity_228 - geometry optimisation


     GEOMETRY OPTIMISED USING EIGENVECTOR FOLLOWING (EF).     
     SCF FIELD WAS ACHIEVED                                   


                              PM7 CALCULATION
                                                       MOPAC v23.0.3 Linux
                                                       Fri Jul 25 19:11:19 2025




          FINAL HEAT OF FORMATION =        113.43099 KCAL/MOL =     474.59526 KJ/MOL


          COSMO AREA              =        291.49 SQUARE ANGSTROMS
          COSMO VOLUME            =        306.04 CUBIC ANGSTROMS

          GRADIENT NORM           =          0.99938          =       0.17667 PER ATOM
          IONIZATION POTENTIAL    =          8.852872 EV
          HOMO LUMO ENERGIES (EV) =         -8.853 -0.852
          NO. OF FILLED LEVELS    =         47
          MOLECULAR WEIGHT        =        251.2902         POINT GROUP:  C1  

          MOLECULAR DIMENSIONS (Angstroms)

            Atom       Atom       Distance
            H    29    N     1    14.63077
            H    23    H    21     6.03745
            H    26    H    27     3.10279


          SCF CALCULATIONS        =        134

          WALL-CLOCK TIME         =      2.516 SECONDS
          COMPUTATION TIME        =     50.072 SECONDS




   ATOM   CHEMICAL          X               Y               Z
  NUMBER   SYMBOL      (ANGSTROMS)     (ANGSTROMS)     (ANGSTROMS)

     1       N          7.82942039  *   1.43118668  *  -0.43777833  *
     2       C          6.71715809  *   1.10944032  *  -0.46765849  *
     3       C          5.35477926  *   0.71897574  *  -0.50293135  *
     4       C          4.94441941  *  -0.32379018  *  -1.34252119  *
     5       C          3.61321710  *  -0.70586461  *  -1.37619356  *
     6       C          2.66668720  *  -0.04233911  *  -0.56185723  *
     7       N          1.34511665  *  -0.49981550  *  -0.67357202  *
     8       C          0.23718243  *  -0.10243008  *   0.05929501  *
     9       N          0.31884495  *   0.83425347  *   1.04852723  *
    10       C         -0.82269947  *   1.13501595  *   1.70202964  *
    11       C         -2.04152219  *   0.53559199  *   1.41043788  *
    12       C         -2.04964864  *  -0.42926760  *   0.36901131  *
    13       N         -3.15515626  *  -1.15312661  *   0.00076565  *
    14       C         -4.46581518  *  -0.77622028  *   0.47152743  *
    15       C         -5.06596872  *   0.56344908  *   0.06867305  *
    16       C         -5.60038846  *  -0.71035506  *  -0.53405649  *
    17       N         -0.91318619  *  -0.74098107  *  -0.32153597  *
    18       C          3.08128800  *   1.00523648  *   0.27367609  *
    19       C          4.41733816  *   1.37788111  *   0.30145151  *
    20       H          5.67593915  *  -0.83570794  *  -1.96972107  *
    21       H          3.30252989  *  -1.51902500  *  -2.02843908  *
    22       H          1.16008548  *  -1.23075095  *  -1.37023741  *
    23       H         -0.72056696  *   1.89655761  *   2.48804950  *
    24       H         -2.94253346  *   0.78612066  *   1.94954166  *
    25       H         -3.09739329  *  -1.75719814  *  -0.81221466  *
    26       H         -4.65745276  *  -1.16801245  *   1.48391427  *
    27       H         -4.48882730  *   1.24996683  *  -0.54764975  *
    28       H         -5.65946240  *   1.12279812  *   0.78637017  *
    29       H         -6.58320900  *  -1.07887692  *  -0.25023127  *
    30       H         -5.41669262  *  -0.92347763  *  -1.58476228  *
    31       H          2.36450993  *   1.53640950  *   0.90882050  *
    32       H          4.73936781  *   2.19072211  *   0.95616572  *

                             CARTESIAN COORDINATES

   1    N        7.829420391     1.431186675    -0.437778335
   2    C        6.717158088     1.109440317    -0.467658490
   3    C        5.354779261     0.718975736    -0.502931348
   4    C        4.944419415    -0.323790176    -1.342521190
   5    C        3.613217100    -0.705864612    -1.376193561
   6    C        2.666687204    -0.042339108    -0.561857232
   7    N        1.345116654    -0.499815497    -0.673572015
   8    C        0.237182428    -0.102430077     0.059295007
   9    N        0.318844952     0.834253467     1.048527229
  10    C       -0.822699475     1.135015955     1.702029637
  11    C       -2.041522195     0.535591989     1.410437882
  12    C       -2.049648644    -0.429267601     0.369011306
  13    N       -3.155156265    -1.153126610     0.000765649
  14    C       -4.465815181    -0.776220279     0.471527428
  15    C       -5.065968723     0.563449077     0.068673051
  16    C       -5.600388455    -0.710355061    -0.534056485
  17    N       -0.913186191    -0.740981074    -0.321535974
  18    C        3.081288003     1.005236481     0.273676087
  19    C        4.417338165     1.377881109     0.301451513
  20    H        5.675939148    -0.835707942    -1.969721068
  21    H        3.302529890    -1.519025002    -2.028439084
  22    H        1.160085484    -1.230750955    -1.370237415
  23    H       -0.720566963     1.896557607     2.488049500
  24    H       -2.942533456     0.786120661     1.949541659
  25    H       -3.097393287    -1.757198144    -0.812214660
  26    H       -4.657452763    -1.168012454     1.483914267
  27    H       -4.488827304     1.249966826    -0.547649750
  28    H       -5.659462398     1.122798123     0.786370166
  29    H       -6.583209001    -1.078876925    -0.250231272
  30    H       -5.416692619    -0.923477634    -1.584762281
  31    H        2.364509934     1.536409503     0.908820503
  32    H        4.739367805     2.190722111     0.956165722


           Empirical Formula: C14 H13 N5  =    32 atoms



      MOLECULAR POINT GROUP   :   C1  


                  EIGENVALUES  
 -38.50334 -37.59437 -36.30725 -34.74490 -33.98658 -30.95549 -30.39255 -27.33459
 -26.50822 -26.38962 -23.71658 -23.60410 -22.05867 -21.90189 -21.54662 -20.76230
 -19.27304 -18.93601 -18.74453 -17.80664 -17.35794 -16.95017 -16.40029 -16.18423
 -15.92430 -15.42279 -15.18610 -14.79062 -14.71401 -14.48277 -14.33699 -14.17351
 -13.80675 -13.23744 -13.17706 -13.13834 -12.85413 -12.35081 -12.30938 -12.12671
 -12.04229 -11.88846 -10.70570 -10.44230 -10.35619  -9.49994  -8.85287  -0.85205
  -0.19302  -0.14483   0.07020   1.01377   1.33515   1.48624   1.51852   1.69800
   2.12866   2.42849   2.74597   3.11342   3.29172   3.31625   3.48489   3.54741
   3.69265   3.85966   4.10725   4.28659   4.44807   4.53927   4.59860   4.77937
   4.86594   4.96914   5.15075   5.31875   5.38500   5.41916   5.45080   5.47842
   5.66019   5.68211   5.77027   5.80520   5.90340   5.99611   6.07147   6.16434
   6.41597


              NET ATOMIC CHARGES AND DIPOLE CONTRIBUTIONS

  ATOM NO.   TYPE          CHARGE      No. of ELECS.   s-Pop       p-Pop       
    1          N          -0.258481        5.2585     1.83226     3.42622
    2          C           0.124509        3.8755     1.10738     2.76812
    3          C          -0.113958        4.1140     1.03313     3.08083
    4          C          -0.045188        4.0452     1.08449     2.96070
    5          C          -0.272881        4.2729     1.07518     3.19770
    6          C           0.275355        3.7246     1.05964     2.66501
    7          N          -0.467628        5.4676     1.52295     3.94468
    8          C           0.558664        3.4413     1.04531     2.39603
    9          N          -0.547050        5.5470     1.75835     3.78870
   10          C           0.198489        3.8015     1.09824     2.70327
   11          C          -0.480036        4.4800     1.06810     3.41193
   12          C           0.478890        3.5211     1.05081     2.47030
   13          N          -0.490941        5.4909     1.53749     3.95345
   14          C           0.029454        3.9705     1.04742     2.92312
   15          C          -0.334084        4.3341     1.05852     3.27557
   16          C          -0.325249        4.3252     1.05670     3.26855
   17          N          -0.629835        5.6298     1.76643     3.86341
   18          C          -0.234702        4.2347     1.08385     3.15085
   19          C          -0.045815        4.0458     1.08755     2.95827
   20          H           0.159410        0.8406     0.84059
   21          H           0.165704        0.8343     0.83430
   22          H           0.336517        0.6635     0.66348
   23          H           0.176066        0.8239     0.82393
   24          H           0.188601        0.8114     0.81140
   25          H           0.329896        0.6701     0.67010
   26          H           0.173660        0.8263     0.82634
   27          H           0.172589        0.8274     0.82741
   28          H           0.166713        0.8333     0.83329
   29          H           0.166993        0.8330     0.83301
   30          H           0.167357        0.8326     0.83264
   31          H           0.214646        0.7854     0.78535
   32          H           0.162334        0.8377     0.83767
 DIPOLE           X         Y         Z       TOTAL
 POINT-CHG.    -7.900    -1.093     0.282     7.980
 HYBRID        -0.946    -0.672    -0.818     1.419
 SUM           -8.846    -1.765    -0.536     9.036


          ATOMIC ORBITAL ELECTRON POPULATIONS

     Atom    s        px        py        pz   
    1  N   1.83226   1.21616   1.10922   1.10084
    2  C   1.10738   0.92239   0.92281   0.92291
    3  C   1.03313   0.93481   1.06218   1.08384
    4  C   1.08449   1.01708   0.96722   0.97640
    5  C   1.07518   0.99859   1.10192   1.09720
    6  C   1.05964   0.78878   0.93367   0.94256
    7  N   1.52295   1.10765   1.43236   1.40467
    8  C   1.04531   0.79073   0.80266   0.80264
    9  N   1.75835   1.33604   1.26022   1.19243
   10  C   1.09824   0.86284   0.92155   0.91888
   11  C   1.06810   1.10500   1.15619   1.15075
   12  C   1.05081   0.80446   0.81691   0.84893
   13  N   1.53749   1.09501   1.42281   1.43563
   14  C   1.04742   0.81723   1.05385   1.05204
   15  C   1.05852   1.14000   0.98232   1.15325
   16  C   1.05670   1.08410   1.08275   1.10170
   17  N   1.76643   1.07728   1.39876   1.38737
   18  C   1.08385   1.04232   1.03697   1.07156
   19  C   1.08755   0.97652   1.00631   0.97544
   20  H   0.84059
   21  H   0.83430
   22  H   0.66348
   23  H   0.82393
   24  H   0.81140
   25  H   0.67010
   26  H   0.82634
   27  H   0.82741
   28  H   0.83329
   29  H   0.83301
   30  H   0.83264
   31  H   0.78535
   32  H   0.83767

 **********************
 *                    *
 * JOB ENDED NORMALLY *
 *                    *
 **********************



 TOTAL JOB TIME:             2.52 SECONDS

 == MOPAC DONE ==
